LAMMPS data file via write_data, version 27 Jun 2024, timestep = 100000, units = lj

6528 atoms
2 atom types
6120 bonds
1 bond types

0 32 xlo xhi
0 32 ylo yhi
0 32 zlo zhi

Masses

1 1
2 1

Pair Coeffs # lj/cut

1 1 1
2 1 1

Bond Coeffs # fene

1 30 1.5 1 1

Atoms # molecular

130 9 1 0.7156300720287504 0.39367114659045793 0.030130367220587664 0 0 0
3352 210 2 2.761985163756733 0.6511632525961285 0.5368957817405678 0 0 1
3327 208 2 1.5124934407355157 1.1766506861433748 0.8975210681512795 0 0 1
6217 389 2 2.1057930566172183 0.15664257062540166 1.4383960972851029 0 1 1
3351 210 2 3.4837731863122974 0.5551192821086234 1.1612592436176128 0 0 1
3350 210 2 3.6821734785292066 1.4406086823688133 1.1039644883784885 0 0 1
3869 242 2 4.509679063745765 0.663233317082517 0.7591610803333178 0 0 1
5968 373 2 5.5535981736876945 0.8989104816717013 1.152357777934268 0 1 1
6408 401 2 5.322448583517913 1.1672402357682692 0.15205014184692128 0 1 1
5967 373 2 6.452674230927527 1.242196775756 1.2290919838971288 0 1 1
109 7 1 7.967600161873149 0.8529301298433243 0.5650835489952888 0 0 0
110 7 1 8.713807413835305 1.1162606334757834 0.03814923329118856 0 0 0
5965 373 2 7.720358080523311 0.14488662764558652 1.3132807914720412 0 1 1
345 22 1 8.965828877367219 0.9173375039418726 0.9731905055167435 0 0 0
346 22 1 9.767095733279964 1.1403229671552697 0.524398446138287 0 0 0
549 35 1 10.771279537267713 1.3031831611016478 0.739957384051801 0 0 0
3020 189 1 10.522515048807687 0.17069937117320744 0.4517622291561636 0 1 0
3013 189 1 12.868662914822847 0.24659346990227363 0.34851693624174507 0 1 0
214 14 1 12.452898086256548 1.0767390531494008 1.1126966174273087 0 0 0
185 12 1 14.061379436795681 0.7598600529430573 0.8539932766647595 0 0 0
215 14 1 13.240439133087666 0.5103595193357516 1.421616306848745 0 0 0
183 12 1 15.312518614944409 1.4014724158398646 0.7315967843858404 0 0 0
3470 217 2 15.237781916995992 0.17677918208689802 1.0845984252921181 0 0 1
3469 217 2 15.94464697206451 0.022523681953515506 0.5046394218382129 0 0 1
184 12 1 14.812407279639604 0.7273723103740541 0.2547420932221941 0 0 0
2814 176 1 16.021469665021044 0.8715448334015695 1.3778913196637954 0 1 0
2813 176 1 16.33957628144223 0.9519785166603199 0.49515123109157505 0 1 0
3463 217 2 17.150044359701308 0.27930767977474885 0.6094870270801871 0 0 1
129 9 1 31.790188023527588 0.13932562104052 0.06976119313139229 -1 0 0
140 9 1 2.3247990887949923 2.7789520558564753 0.3991816137030395 0 0 0
3326 208 2 1.717836829073212 1.977493686736964 1.3851463119043732 0 0 1
139 9 1 1.5468160773121813 2.245278624502333 0.4343191092230866 0 0 0
3324 208 2 2.591584945278213 2.474646996268183 1.341930679491806 0 0 1
3353 210 2 2.5563333124733103 1.6522239130848342 0.6331113750717255 0 0 1
3505 220 2 3.5671269849609106 2.3349539424502774 0.5626435699078749 0 0 1
3506 220 2 3.453022153980332 1.6169546151982357 0.013245478147166976 0 0 1
6410 401 2 4.667162045179808 1.9800587731259305 0.6869649947009722 0 1 1
6406 401 2 5.8078137445685964 2.7310915174882715 0.5130494413259925 0 1 1
6411 401 2 4.601426278214985 2.8433432832365413 1.1170519940005612 0 1 1
6407 401 2 5.890207853710559 1.8197513870399693 0.5150297629893864 0 1 1
278 18 1 6.836442933564205 2.452506408892277 1.3867232727184688 0 0 0
108 7 1 7.4014416251667345 1.6513972561745442 0.7111028382532849 0 0 0
123 8 1 8.313536040696611 2.0747490133637796 0.8891703887886805 0 0 0
122 8 1 9.177182754286003 2.0335749751161427 0.4562337991836235 0 0 0
550 35 1 10.197570567885073 1.9823476666440487 1.1931608641272122 0 0 0
597 38 1 10.699857832485403 2.681175374636394 0.3173636782339485 0 0 0
3080 193 1 11.435474310685876 2.0794638792728866 1.4086986205007181 0 1 0
211 14 1 11.798837529348171 2.822791804401962 0.9040477225152947 0 0 0
213 14 1 12.531431733996003 2.0428536069595835 1.1359950870949387 0 0 0
546 35 1 11.937864359122228 1.8226497551655618 0.41845968887654605 0 0 0
545 35 1 12.616512205152844 2.3226591291752294 0.07183137887060492 0 0 0
3085 193 1 13.59703573852354 1.6316466955478826 0.34272322261609134 0 1 0
3084 193 1 13.608593491619184 1.8123874317122277 1.2558367967243038 0 1 0
209 14 1 13.22422652463971 2.701331214724452 0.7709959413151409 0 0 0
3086 193 1 14.501108841855542 1.8879007020633343 0.23062381733424378 0 1 0
937 59 1 15.51730058240994 2.535582651337517 0.701208644993913 0 0 0
182 12 1 14.7590226340379 1.9421049751159598 1.3392497773535958 0 0 0
938 59 1 14.671502076025693 2.862773254998877 0.6591826062237753 0 0 0
935 59 1 16.92685037674195 1.7490606653360319 1.0092548231379694 0 0 0
936 59 1 16.176924888929566 2.1934575668085814 1.3469822218268295 0 0 0
934 59 1 16.595080964240374 2.184254656398363 0.27027284939146756 0 0 0
141 9 1 1.700496631875257 3.170634277171042 1.0683564132273438 0 0 0
142 9 1 2.1675346900044272 4.003192336571309 1.0614168708618419 0 0 0
6464 404 2 2.8333806036192706 3.731503999934965 0.16717876006627297 0 1 1
137 9 1 1.6648752490682808 3.4996829114128745 0.05329525436226144 0 0 0
3323 208 2 3.1146242003516393 3.26719844621061 0.956539982055181 0 0 1
6401 401 2 4.046181094688853 3.542368785073497 0.4623732859238585 0 1 1
6412 401 2 5.461170564861545 3.158076289795642 1.3779870481298457 0 1 1
6402 401 2 4.957895691870754 4.069234236921502 0.5874163619066382 0 1 1
6403 401 2 5.706206321049444 3.863315454451332 0.03903868047883509 0 1 1
892 56 1 6.731662661045653 4.13744783173389 0.22119115085917396 0 0 0
497 32 1 5.94851514955339 4.310812281915795 1.2421637681026998 0 0 0
498 32 1 6.447308041759388 3.4837838105376626 1.1562799497403995 0 0 0
894 56 1 7.3437009383366165 3.0716788105848396 0.5995604927389868 0 0 0
882 56 1 8.43011643529619 3.919516603366843 0.3328996365254178 0 0 0
125 8 1 8.063371540992666 2.9786967693864126 1.3491885460607016 0 0 0
500 32 1 7.393222804998151 4.016907401542668 1.0514045637531466 0 0 0
126 8 1 8.854428210753388 3.0235685930241827 0.8780470662608107 0 0 0
3218 202 1 10.115289613671543 4.080768651782961 0.942907373445861 0 1 0
127 8 1 9.729924892605185 3.1819716098696182 0.6155154299238811 0 0 0
883 56 1 8.879045072103791 4.0757741181108065 1.156883240619837 0 0 0
598 38 1 10.774817214074398 3.1936263008606347 1.1766343255710867 0 0 0
599 38 1 11.139333672955878 4.059326315387261 1.1387884549537222 0 0 0
434 28 1 11.38073112883738 3.632015597029597 0.011131569284813549 0 0 0
210 14 1 12.519762051912583 3.369846715423462 0.6900178580600902 0 0 0
600 38 1 12.104335861606456 4.3554715584723915 1.0261281278701826 0 0 0
605 38 1 13.28493461353137 4.295832264794616 0.8345675225027629 0 0 0
606 38 1 13.81188770315992 3.6262414459902 1.1685304557501268 0 0 0
445 28 1 13.316671967672324 3.4249166962634963 0.007570454477663627 0 0 0
942 59 1 15.405691649534944 4.022457047597872 0.308307888216363 0 0 0
939 59 1 14.832289334808017 3.7513197237310636 1.0517906897914522 0 0 0
940 59 1 15.748183245933971 3.530457764900158 1.402688696703734 0 0 0
941 59 1 16.100886960453575 4.303346399148378 0.907939481668956 0 0 0
3315 208 2 1.6399699021729728 5.660175002937823 0.10420001403992468 0 0 1
143 9 1 2.8872421738196885 4.46770365882417 1.0517515884741604 0 0 0
3316 208 2 2.2746898602984995 5.141234322103703 0.6017201081031615 0 0 1
3319 208 2 3.2624941032405057 5.486204672232704 0.9537993595351556 0 0 1
3267 205 2 4.2713516298479295 5.494338324732211 1.4414863758451295 0 0 1
3321 208 2 3.9042359568010885 4.551064072820936 1.313370974847051 0 0 1
3550 222 2 3.693354752354616 4.498537117208841 0.09716104734287083 0 0 1
3551 222 2 3.59750429880716 5.426284452269561 0.03876043869027457 0 0 1
3269 205 2 5.655110745877375 4.9800874805814095 0.34691566250283523 0 0 1
3268 205 2 5.020507422418628 5.023266784798885 1.0657768222448754 0 0 1
3552 222 2 4.521725051844326 5.322056778537617 0.003521567387480218 0 0 1
891 56 1 7.018348935121341 4.983859375113858 0.5982985170347043 0 0 0
3270 205 2 5.983921982981312 5.644366855863282 1.0325325865934545 0 0 1
881 56 1 8.03154588182565 4.814027869931632 0.2987858963124744 0 0 0
890 56 1 7.679998123193622 5.550151678607537 1.1174302032728904 0 0 0
884 56 1 8.60839187723368 5.021124334859277 1.0909390867845148 0 0 0
3217 202 1 9.439823830983634 4.539149817960394 0.41210548379416934 0 1 0
3832 240 2 9.732611953383792 5.697158231220503 1.0738625235971624 0 0 1
3833 240 2 9.497857156799837 5.661741036056747 0.1293670815683102 0 0 1
3221 202 1 11.370630979384279 5.121931513252817 0.9092904944304947 0 1 0
3219 202 1 10.470140537882177 4.894884691595843 1.2411530208966162 0 1 0
3224 202 1 10.539957838129762 5.337812262745784 0.239386779469257 0 1 0
601 38 1 12.52678420247618 5.062509372478268 0.6010537567710158 0 0 0
408 26 1 14.015096609045962 5.509241494619332 0.5881202829236325 0 0 0
392 25 1 14.104264208604228 4.547718190395803 0.40906979573002084 0 0 0
393 25 1 14.413879239484968 4.700765685681639 1.3499448618126382 0 0 0
394 25 1 15.06528278446165 4.968485414802396 0.7380944114794079 0 0 0
404 26 1 16.695941333721766 5.733304181731989 0.44242115619362093 0 0 0
3317 208 2 1.7114287297037483 5.827193964415827 1.1624302926273797 0 0 1
3318 208 2 2.6010220625688545 6.0627160000513705 1.452509392124715 0 0 1
3306 207 2 2.463256068263506 6.5963914836321225 0.6769167795530404 0 0 1
3266 205 2 4.0766164556932605 6.163368152378875 0.6858596383751429 0 0 1
3265 205 2 3.3447213411983574 6.628931163613307 1.2092106008792762 0 0 1
3301 207 2 3.6069647759022243 7.188303884135889 0.35527553458260164 0 0 1
3563 223 2 4.552316291851165 6.887059810052841 0.12231797045276445 0 0 1
3564 223 2 5.033865695604066 6.177433623610609 0.5719146062133312 0 0 1
3566 223 2 5.5684690755533 6.817400761791623 0.07384745073812855 0 0 1
575 36 1 6.926373186406271 7.058421596948717 0.6933649700866752 0 0 0
3567 223 2 6.271439618151489 6.296165991947018 0.3651443934159368 0 0 1
889 56 1 7.351777581607886 6.042924144942787 0.40815704024302757 0 0 0
574 36 1 7.83880840153977 7.244647036210815 0.688903045122289 0 0 0
888 56 1 8.252954090506844 5.969844307328183 0.2101272199459629 0 0 0
628 40 1 8.72713441790458 7.0061963110241345 0.07610356424099193 0 0 0
887 56 1 8.802176746438898 6.151716659839578 1.069068287208865 0 0 0
630 40 1 9.735460032077794 6.683260552094917 0.466658665847831 0 0 0
3830 240 2 9.406609707296965 7.05030695896182 1.4395735701166505 0 0 1
3222 202 1 11.53681094806756 5.8305094837688625 0.30763030822677145 0 1 0
807 51 1 11.424228282942163 7.060362623729748 0.9014327507656655 0 0 0
631 40 1 10.608517912056598 6.780745118621502 0.09911656931375681 0 0 0
3223 202 1 10.761343886229083 6.035750453347453 0.8743433583686683 0 1 0
410 26 1 12.618311202058548 6.163956494773207 0.8698055430118511 0 0 0
411 26 1 12.67375586008001 6.858736507312055 0.2941124097093069 0 0 0
810 51 1 12.984374747973334 7.230577361297304 1.2624753338942372 0 0 0
407 26 1 14.348388064835826 6.313199114638249 0.10349655702628285 0 0 0
409 26 1 13.563538164065404 6.312213509093984 0.7599880501222676 0 0 0
743 47 1 14.346888636882468 6.94866422281031 0.8763766220759986 0 0 0
740 47 1 14.799023457251856 5.898489401069025 1.1428133277277333 0 0 0
405 26 1 15.7709160854645 5.828375569129173 0.5591377922600648 0 0 0
707 45 1 16.15890545240546 7.103934882889399 0.7262630399472998 0 0 0
3761 236 2 1.1052262157517732 8.34993946161275 0.7887729041376927 0 0 1
3307 207 2 2.2497557261977437 7.4698567192053416 1.000798831981173 0 0 1
3773 236 2 2.0155047242159703 8.629723948577487 0.8537886753129684 0 0 1
3308 207 2 2.069674303487993 7.795591963928 0.11582452381324694 0 0 1
3774 236 2 2.9119895936151345 8.558840330897576 0.8058472786331187 0 0 1
3775 236 2 3.7883890540265566 8.072643603382724 0.8090913301193491 0 0 1
3562 223 2 4.682768634009971 7.375435870857375 0.9293242555158563 0 0 1
3561 223 2 4.933337229389068 8.322774741932216 0.8333898931520605 0 0 1
3560 223 2 5.640011754460911 7.659429354228933 0.9758389469110194 0 0 1
576 36 1 6.608763180754788 7.871753138442659 0.1843678441898928 0 0 0
3559 223 2 5.921897294141536 8.630292096592626 0.8442855347231647 0 0 1
573 36 1 8.412757335979332 7.966825204265645 0.6854517768861785 0 0 0
572 36 1 7.56883672358348 8.14751559514778 1.0459884314071315 0 0 0
629 40 1 9.38960488267775 7.5323991038655 0.4601466308546463 0 0 0
806 51 1 10.642349778958996 7.452645858086075 1.4304027981132361 0 0 0
633 40 1 10.464976029641162 8.605424835811425 0.40113946525465904 0 0 0
632 40 1 10.38547786191297 7.660729689327322 0.39344806003020527 0 0 0
817 52 1 11.478088121490375 8.39293305445579 0.8183192991108649 0 0 0
809 51 1 12.47080220440492 7.855156304485813 0.7050634631289721 0 0 0
808 51 1 11.865907127920961 7.482663140106272 0.11361050803598677 0 0 0
811 51 1 13.479124285948826 8.045755893763587 0.917357363358674 0 0 0
813 51 1 14.460988188777119 7.902618728404685 0.3416430573693392 0 0 0
812 51 1 13.582870606591428 7.6569623810722005 0.005949116345990458 0 0 0
923 58 1 13.738708238454343 8.654034058099143 0.01993042743925862 0 0 0
744 47 1 15.121567053949759 7.422793840998855 1.0553035552316716 0 0 0
816 51 1 15.544440021616339 8.009922761660377 0.12113636070729962 0 0 0
708 45 1 16.46915893327158 7.68758137122359 1.3689500566634691 0 0 0
709 45 1 16.30506254264556 8.496256383395275 0.8007538036354452 0 0 0
3771 236 2 0.7642251408987532 9.44908970472514 0.929628331530998 0 0 1
3762 236 2 1.2476224515299748 8.833800584787632 0.0001366003788559741 0 0 1
3772 236 2 1.7205923181664524 9.53043107795955 0.7455304561216317 0 0 1
3776 236 2 3.7735535193718825 9.017080786554672 0.4985807163717734 0 0 1
4093 256 2 4.214486643819822 9.438222977356869 1.3469075157290362 0 0 1
532 34 1 2.9202696000582775 9.437165338674266 0.07931264116150866 0 0 0
533 34 1 3.1161136638108364 9.999274898932034 0.7761920479074405 0 0 0
4501 282 2 4.25317749341217 9.93735188133572 0.4254194671766794 0 0 1
4092 256 2 5.065661361713222 9.587514155542706 1.0063025951825955 0 0 1
3791 237 2 6.746372787780401 10.114835061177759 1.3594042770855568 0 0 1
639 40 1 6.983085167154037 9.189745627731755 0.8508407986526185 0 0 0
4079 255 2 5.9969405293719085 9.754694368316628 0.32834007168498874 0 0 1
4065 255 2 8.615315458027032 8.81811075681159 0.030798585776179863 0 0 1
638 40 1 7.876024661475894 9.421595263322951 1.1700584586155354 0 0 0
785 50 1 9.43536310233516 9.397447072953351 0.4829887000902454 0 0 0
634 40 1 10.344484177439346 9.179578760384134 1.1802585755112653 0 0 0
652 41 1 11.3317978071695 9.250653777352396 0.09320946668545597 0 0 0
651 41 1 11.70219891287369 10.136015039336264 0.041838215913832084 0 0 0
821 52 1 12.105576562371297 9.31740831763134 1.254589072834542 0 0 0
820 52 1 13.029083749894983 9.106542478349681 1.3794449899273982 0 0 0
654 41 1 12.420962614216158 8.87919102552145 0.20470962271075796 0 0 0
7 1 1 13.525265928667492 10.038431667891325 0.5533253837600265 0 0 0
922 58 1 14.100528094110496 9.11223099153672 0.882280476823233 0 0 0
919 58 1 15.370161142756375 8.903148382358182 0.7430078089245375 0 0 0
918 58 1 15.006582866080318 9.760244128227406 0.4505486977573025 0 0 0
916 58 1 16.305584684542662 9.768417706431897 1.2406332788502563 0 0 0
710 45 1 16.284524525928457 9.209666699108956 0.19982412279166442 0 0 0
711 45 1 17.07761104564236 9.67824842611407 0.444910617417065 0 0 0
712 45 1 17.87494733772763 9.436215778156818 0.8936610474422817 0 0 0
3770 236 2 1.0435336395614099 10.327441788741641 1.2451017809008738 0 0 1
3769 236 2 0.6525311055413502 11.27293037318897 1.0496220646048897 0 0 1
4755 298 2 1.3720245841503622 10.579235645143807 0.1894695442589681 0 0 1
4756 298 2 2.3085567000333422 10.59678141528812 0.10438566692102033 0 0 1
1450 91 1 2.070127927499978 10.518206161725523 1.0971596043925733 0 0 0
1449 91 1 2.650687062724993 11.24701502749671 1.079897348511242 0 0 0
4499 282 2 3.1266600686933796 11.548776470743718 0.1981775255112058 0 0 1
4498 282 2 3.7505424025908325 11.46361501626206 0.9419788947152272 0 0 1
541 34 1 3.8164744849642576 10.424257637395463 1.4203527143710934 0 0 0
4500 282 2 3.598576374895001 10.701672270518756 0.298761932811101 0 0 1
542 34 1 4.583476775321529 11.001484653025658 1.373453316019273 0 0 0
4090 256 2 5.736085574035839 11.110326618787532 0.5618626809594158 0 0 1
4091 256 2 5.057837125907266 10.471647238033531 0.5242154817322595 0 0 1
4497 282 2 4.591868727617938 11.446780962914094 0.4525846475814929 0 0 1
3792 237 2 6.768037676862784 10.44313502530331 0.45669964074125996 0 0 1
4089 256 2 6.603154084456032 11.632827970146154 0.4408463776721074 0 0 1
3790 237 2 6.805121388444695 11.071319790358706 1.2840371159526585 0 0 1
4068 255 2 8.020992270979708 10.437411089473983 0.4484636629724811 0 0 1
4069 255 2 7.478031548176379 11.094924072763332 0.09499584219830388 0 0 1
1312 82 1 9.527762024724288 10.306990999500067 1.276678467480644 0 0 0
1308 82 1 8.967366237429172 11.345020571682193 0.577768648663533 0 0 0
787 50 1 9.691411663306365 10.340203685189637 0.1410822935558456 0 0 0
975 61 1 11.588796220545474 11.137638022333478 0.7488686163513993 0 0 0
974 61 1 11.017986910283783 10.410527068753387 1.0343090396830625 0 0 0
1087 68 1 10.581014631304178 11.467911886773173 0.6157229406168778 0 0 0
5 1 1 13.04891688889662 11.085805154466193 0.3628473587854479 0 0 0
6 1 1 12.626104481228937 10.326222569934341 0.7436671781655891 0 0 0
8 1 1 14.199866100634761 10.240833480507119 1.123778388888694 0 0 0
829 52 1 13.911524671661379 11.32877927387733 0.9216143236402257 0 0 0
917 58 1 15.485862014771339 10.326232298810009 1.115438437260243 0 0 0
830 52 1 14.790433333980214 11.250070659339508 0.3707968839289824 0 0 0
831 52 1 15.768427148803642 11.141693501292103 0.2896066524829376 0 0 0
832 52 1 15.743738354404863 11.383866857112148 1.216153170998024 0 0 0
915 58 1 16.623404783991184 10.624466154153257 0.9863446089414191 0 0 0
914 58 1 16.775025058388668 10.974920161558227 0.0878168561971348 0 0 0
913 58 1 17.59906368232226 10.774386352653318 0.40285931876783704 0 0 0
713 45 1 18.153317566947926 10.24409032928197 1.4155100136216034 0 0 0
4969 311 2 0.385683343894965 12.655179803879166 1.2871055690200919 0 0 1
3768 236 2 1.0380597415125765 11.71361680342096 0.284819609095663 0 0 1
4968 311 2 1.3679639927333687 12.96702139880963 1.0803712854283107 0 0 1
4238 265 2 2.819592607147442 12.529828758440557 0.8297857301750752 0 0 1
1448 91 1 1.9714623426891211 11.887883869099177 0.916909814139547 0 0 0
4235 265 2 3.8075344743987674 12.80543568095294 1.3717256440983527 0 0 1
4239 265 2 3.7068107225129032 12.57114093728387 0.35211525752691153 0 0 1
4234 265 2 4.669006268361964 12.352091626808239 1.3588953035461664 0 0 1
4509 282 2 4.803734353832027 12.481813361075728 0.2909407986952675 0 0 1
496 31 1 6.91857958005839 12.32997699905892 1.3301105256549988 0 0 0
4086 256 2 6.5226972466050634 13.035147187898346 0.36880866421432285 0 0 1
4087 256 2 7.557326809665521 12.932249812302535 0.1991247264742231 0 0 1
495 31 1 7.572671770464056 11.823568448045632 0.8953590948474559 0 0 0
1307 82 1 8.609786105773551 12.17628567398309 0.23235634859246782 0 0 0
4036 253 2 8.680490894565441 12.63501772363383 1.3785538697664166 0 0 1
1306 82 1 9.538072378927144 12.270274854961635 0.4703264857001845 0 0 0
1085 68 1 10.643727467610626 12.595101865689516 0.19737715368200393 0 0 0
1086 68 1 11.425766204571113 11.971084268621386 0.28965454147221087 0 0 0
4048 253 2 11.012050660426686 12.994390891457096 1.1257850551476862 0 0 1
1088 68 1 10.840480300582488 11.85852271878169 1.4044958135097125 0 0 0
976 61 1 12.279906906164406 11.736538939424248 0.966010451968828 0 0 0
1076 68 1 12.180404541835047 13.026974484307587 1.1924531433437364 0 0 0
1075 68 1 11.719886781966402 13.071240952455526 0.3245204862247497 0 0 0
827 52 1 13.490749647236333 12.78135594561321 1.249603959169964 0 0 0
828 52 1 13.31678842895171 12.042508984651896 0.6883982591416223 0 0 0
2 1 1 14.418950667236812 12.419550465336961 0.41400741252895257 0 0 0
610 39 1 13.740375958413447 13.011435465663975 0.002559747202184326 0 0 0
11 1 1 14.768780756274289 11.798337083245197 1.3198173037907301 0 0 0
12 1 1 15.448282497336672 12.331470898305156 0.7761970049868807 0 0 0
15 1 1 16.58096933768522 11.85783721337372 0.6244530117302511 0 0 0
1651 104 1 17.230811697258968 12.620563294218899 1.3230568041947728 0 0 0
1652 104 1 16.35452849277281 12.863682744992536 1.1758783168377256 0 0 0
16 1 1 17.534296602554285 11.922328578284779 0.48578398860458766 0 0 0
5190 325 2 1.195065667435849 13.968423890454943 0.1623607244360703 0 0 1
5665 355 2 0.8249164467035413 13.77532294063401 1.411637938563948 0 0 1
5666 355 2 0.007335251035342639 14.322298942924807 1.253034134256239 0 0 1
5191 325 2 0.49208544098505774 13.236502634196908 0.31897382726421813 0 0 1
2161 136 1 2.0508900177772107 14.130210729140073 1.1816349659076721 0 0 0
4237 265 2 2.6282944407072613 13.296180966145338 1.43655641158589 0 0 1
4983 312 2 2.2523349759030915 13.361893436808344 0.3528970669917428 0 0 1
4236 265 2 3.254387957814042 13.41074580942316 0.7722483741292591 0 0 1
4316 270 2 4.278138736169049 13.606528381609257 0.5010313689864918 0 0 1
4538 284 2 4.069774363626705 14.485241282798883 1.1503720275234224 0 0 1
4317 270 2 4.627256688637381 13.599045544524435 1.3874721160182488 0 0 1
4318 270 2 5.2928053554156795 13.151185843312652 0.8629363430360949 0 0 1
4540 284 2 5.26988841470602 14.43777000982396 1.0842738258633022 0 0 1
4085 256 2 7.158293116257882 13.399361902361324 0.9808954523569785 0 0 1
4541 284 2 6.175576143028993 14.203799516601084 1.126942793576727 0 0 1
4084 256 2 8.036242004418376 13.839278165455463 1.1241105983204847 0 0 1
4083 256 2 7.825800557598011 14.13259932044401 0.22795463711030747 0 0 1
1304 82 1 8.94547016378115 13.169588895749548 0.40277755597025333 0 0 0
1568 98 1 10.034985876858586 13.159153959309325 0.9370114025201105 0 0 0
1303 82 1 9.035938908708644 14.061236786107893 0.1010663768818071 0 0 0
1079 68 1 10.032812256316326 13.989219812247335 0.09433992137377073 0 0 0
1567 98 1 10.199195209491453 14.050892043464268 1.3715531289796843 0 0 0
1078 68 1 10.907192315978424 13.921089125620364 0.5414591868640748 0 0 0
1077 68 1 11.669730719978324 13.796310380930011 1.0832936391644126 0 0 0
1275 80 1 11.839592508139416 14.301184287725526 0.22872304840394958 0 0 0
1388 87 1 12.682250312817473 13.948076041568342 0.8558182809984671 0 0 0
609 39 1 12.849844349282144 13.136269054819756 0.27504643412762453 0 0 0
1389 87 1 13.691796033992196 13.823193103135306 0.9700598536751522 0 0 0
1391 87 1 14.469774089339102 14.046226027605277 0.09104720225224465 0 0 0
1 1 1 14.619422187492148 13.24462382268104 0.897226024987666 0 0 0
1654 104 1 15.479342849416886 14.324804686527015 0.46566629002562704 0 0 0
1653 104 1 16.104578881262807 13.529227672167645 0.48885590943067636 0 0 0
5189 325 2 1.211465727487524 14.611341567016225 0.902267809274806 0 0 1
5879 368 2 0.8204147457071519 15.46442072199846 0.05194865934250202 1 0 1
5878 368 2 0.27569493016126884 15.235571733758796 0.7745498025982087 1 0 1
2162 136 1 2.482059681913056 14.574469202789661 0.45654636742500443 0 0 0
5188 325 2 1.5449913011661773 15.497487042162897 0.8888655607945173 0 0 1
2164 136 1 2.463835316511127 15.796833520489278 0.5949690196917315 0 0 0
2163 136 1 2.6861565405994434 15.063477124335998 1.2424484058335208 0 0 0
4537 284 2 3.7439176646254966 14.595366792536137 0.2670603542482442 0 0 1
4521 283 2 3.895747151436976 15.520881220570113 0.6773668872492219 0 0 1
1503 94 1 5.689759381836471 15.870567636822928 1.3860621355307012 0 0 0
4522 283 2 4.847346862744128 15.395961501868403 0.6683197737163273 0 0 1
4998 313 2 5.98832226153497 15.095718516841263 0.6779438318429327 0 0 1
4997 313 2 6.665503127903964 15.576844675993167 1.1657784032002 0 0 1
4542 284 2 7.159448971116378 14.566381114214527 0.9640032033626789 0 0 1
4995 313 2 7.674246836612162 15.426255126610668 0.5618434884118051 0 0 1
4994 313 2 8.483582981059882 14.959599385720528 0.8055357314458058 0 0 1
4560 285 2 8.462533866509004 15.743264258232076 1.3596369398318668 0 0 1
4993 313 2 9.22469496796984 15.158626653046987 0.29732281440075564 0 0 1
1263 79 1 10.17127262161022 15.007464915810942 0.5021314704573747 0 0 0
1264 79 1 9.673697836558436 15.639070946746443 1.0437503333330005 0 0 0
1262 79 1 10.679150906876625 15.476394618174744 1.0861483488582426 0 0 0
1256 79 1 11.536756452764411 14.85068661856714 1.325900125536401 0 0 0
1273 80 1 11.275267244025406 15.24524007289049 0.3117764745019624 0 0 0
1329 84 1 12.93468540314837 14.872138269099286 0.2214984319970972 0 0 0
1333 84 1 12.240737370981225 15.93282527069378 0.5985712537842961 0 0 0
1385 87 1 13.99142203326276 14.867064810930318 1.1079832226620883 0 0 0
1384 87 1 13.499785942746179 15.532706976668294 0.6034065141897533 0 0 0
2352 147 1 14.758840726543234 15.773357518409048 0.860116514820618 0 0 0
1841 116 1 15.556692848344055 15.677264388948963 0.19645872928157956 0 0 0
4218 264 2 16.495356751236095 15.988892207278111 0.9240616274622978 0 0 1
4217 264 2 16.13591305663887 15.033531160199178 0.9776628510724895 0 0 1
4216 264 2 17.083887644452023 15.106997156272715 1.2731230616854907 0 0 1
4421 277 2 17.840505933505344 14.68783466031675 0.5863519667955904 0 0 1
4420 277 2 17.774519042846993 15.649753760515079 0.7148428102496645 0 0 1
5187 325 2 1.1116450949529941 16.332284385598644 0.8410859581945797 0 0 1
5186 325 2 0.5276558147653732 16.686528866051827 0.16442679523697276 0 0 1
5185 325 2 1.0922761195573585 17.453349511276553 0.2997101292689397 0 0 1
4528 283 2 2.13541560685334 16.79845814163447 0.5378901035086828 0 0 1
2165 136 1 2.7633690642571693 16.248713413662646 1.3615312530712618 0 0 0
4526 283 2 2.9529485407948255 17.189819116725523 1.13797972045335 0 0 1
4525 283 2 3.468174443904122 17.120618986786734 0.3306650446242833 0 0 1
4524 283 2 3.7535658336953484 16.561023675368524 1.0920683802764928 0 0 1
5262 329 2 5.373258530257162 16.974135905561386 0.1283345493194266 0 0 1
5261 329 2 5.249263609301871 17.09285083918961 1.061789352134724 0 0 1
4523 283 2 4.6006248338232485 16.145225805383852 1.2298889497719452 0 0 1
4977 312 2 4.538410765682782 16.372483491287184 0.1852929629592307 0 0 1
1501 94 1 6.932019353732727 16.65026363666861 0.3178725767458634 0 0 0
1502 94 1 6.158176532327241 16.32966534431192 0.6770181867220082 0 0 0
4996 313 2 7.458061966490543 16.210859377395785 1.1056924337488572 0 0 1
4558 285 2 8.060494909712608 16.682189805475577 0.35456878419795806 0 0 1
1500 94 1 7.312170473636704 17.339120415537487 0.7540154309271357 0 0 0
1283 81 1 8.49971880000978 16.872144094601914 1.2680012529442652 0 0 0
4559 285 2 8.800916448401813 16.089179823099773 0.5774830217533463 0 0 1
1282 81 1 9.164982011386856 17.430445865569986 1.4046438820876874 0 0 0
1269 80 1 9.467644033630224 16.898120636220472 0.5888675499027736 0 0 0
1584 99 1 10.453429853522346 17.023191525842662 1.0314092060436013 0 0 0
1335 84 1 11.07299633177935 17.09102644313921 0.03277734860104818 0 0 0
1334 84 1 11.346432759349447 16.30749729463853 0.4866035547498538 0 0 0
1344 84 1 11.948877162005346 16.977872261738106 1.0980834773230086 0 0 0
1332 84 1 12.20180388092054 16.805693954499347 0.10859911102582914 0 0 0
4647 291 2 13.196709673473125 16.580689048065974 0.38712030190126195 0 0 1
2158 135 1 14.193151615551786 16.736377645836697 0.6068269912799155 0 0 0
2346 147 1 15.989239498449722 17.126177679541637 1.2025556406087294 0 0 0
2347 147 1 15.11029475515627 16.703636013431126 1.3476896989329465 0 0 0
4419 277 2 17.371691467494387 16.231077765004994 0.054796673135132194 0 0 1
1856 116 1 17.165506530660334 17.3196239249832 0.7138392653992821 0 0 0
1854 116 1 16.43755070212009 16.716063321162768 0.04928135708282487 0 0 0
5921 371 2 0.1737104996607017 18.835833999805185 0.8988447133606856 0 0 1
5441 341 2 0.6562973115996158 18.299774564973344 0.17505381281043944 0 0 1
5874 368 2 1.1026718851655712 18.448606533256648 1.396003680180228 1 0 1
5875 368 2 0.6333359894767322 17.550383832710594 1.3682470611374322 1 0 1
4527 283 2 2.1645380827384546 17.68512388633552 0.8997154245119948 0 0 1
5442 341 2 1.5466582463442107 18.425377788000624 0.4606468012083592 0 0 1
5445 341 2 3.947969739389813 18.24846881833289 0.78691122919622 0 0 1
5444 341 2 2.9402156273033926 18.519860278967077 0.7348405840200462 0 0 1
5447 341 2 5.132522243288822 18.06071995921491 0.13145912163887422 0 0 1
5446 341 2 4.434308828295857 17.4707249296564 0.4949987531917785 0 0 1
5260 329 2 5.01128846870737 17.999559878906105 1.2651941598110574 0 0 1
5461 342 2 5.8820290470014545 18.769006259161927 0.9522795335115383 0 0 1
5264 329 2 6.101949394445793 18.40367359813376 0.013804646483546283 0 0 1
1498 94 1 6.488374566830831 17.993620238442368 1.4497394604561833 0 0 0
1499 94 1 7.033624715041443 18.241269166964713 0.7618056465492292 0 0 0
5263 329 2 6.073716540674652 17.528199642603134 0.45255627584431574 0 0 1
1792 112 1 8.19669411569189 18.093918106613813 1.3212532821429832 0 0 0
1791 112 1 8.28391708438351 17.782094562265694 0.4282687928545409 0 0 0
2721 171 1 9.87674075772405 18.734401717842953 1.3567479745583868 0 0 0
1336 84 1 11.140438934762805 17.85623982501923 0.6497195869117319 0 0 0
1337 84 1 11.149013153324166 18.798455214650154 0.5233413669243969 0 0 0
1573 99 1 10.222842142150695 18.42774531469831 0.23909606559951635 0 0 0
1341 84 1 12.434576903407129 18.81086618650872 0.34464193665520565 0 0 0
1343 84 1 12.215507380629175 17.844374131226033 0.713280597419433 0 0 0
4648 291 2 13.256116042872053 17.58460119097281 0.371232762963612 0 0 1
2157 135 1 14.260801114225195 17.662494737661248 0.9799239907093124 0 0 0
2125 133 1 13.689594084427487 18.820086514476014 0.32001938858415185 0 0 0
2126 133 1 13.22874057774705 18.859340173059103 1.1328753142431212 0 0 0
2156 135 1 15.14926964505351 17.644379403318528 0.5495266458791822 0 0 0
2298 144 1 14.798316225178002 18.729005413016893 1.0030160092296414 0 0 0
2344 147 1 16.18432825507414 18.26175533798792 1.1188065600517902 0 0 0
1855 116 1 16.47849700247831 17.68064940622588 0.20705771387861857 0 0 0
2340 147 1 17.110570497823463 18.67285814628413 0.6915988148025257 0 0 0
2341 147 1 17.803883863468386 18.233890536593417 1.184523540791269 0 0 0