ITEM: TIMESTEP
1000
ITEM: NUMBER OF ATOMS
720
ITEM: BOX BOUNDS pp pp pp
0.0000000000000000e+00 3.2000000000000000e+01
0.0000000000000000e+00 3.2000000000000000e+01
0.0000000000000000e+00 3.2000000000000000e+01
ITEM: ATOMS id type xu yu zu
1 1 -0.741768 -0.356858 3.10121
2 1 -0.221824 0.445349 2.99894
3 1 -0.11288 0.773306 3.88194
4 1 -0.221792 0.241785 4.67226
5 1 -0.424408 0.380609 5.58625
6 1 -0.237523 -0.270508 6.23149
7 1 -0.510258 0.552945 6.69655
8 1 0.162656 0.559993 7.38898
9 1 -0.607173 0.558072 7.95378
10 1 -0.208058 0.0077153 8.63028
11 1 0.230233 -0.835549 8.72683
12 1 0.979696 -0.4892 9.22585
13 1 5.40454 -0.571144 3.04645
14 1 5.23529 0.00842503 3.82907
15 1 5.87132 -0.643291 4.18881
16 1 5.25335 -0.259599 4.83972
17 1 5.16528 -1.00089 5.44191
18 1 5.26449 -0.277221 6.09318
19 1 5.04895 0.276959 6.86967
20 1 5.15467 -0.6517 7.08638
21 1 5.28025 -0.233055 7.93767
22 1 5.18104 -0.0733561 8.88315
23 1 5.82182 0.120365 9.54985
24 1 5.7292 1.06317 9.38646
25 1 10.073 -0.0100712 2.70123
26 1 11.0017 -0.276961 2.70864
27 1 10.7997 -0.196563 3.64513
28 1 10.4599 0.224858 4.43454
29 1 10.3491 0.130919 5.37137
30 1 9.81025 0.245765 6.1448
31 1 9.64207 -0.526635 6.69435
32 1 9.82017 0.0093018 7.45311
33 1 10.6357 0.273911 7.87667
34 1 10.5386 0.0158521 8.79509
35 1 11.1583 0.75052 8.65323
36 1 11.7932 0.0407568 8.7211
37 1 14.3228 -0.0501608 3.25756
38 1 15.095 -0.0704355 3.82717
39 1 14.8711 0.425972 4.60096
40 1 15.0396 -0.177658 5.34712
41 1 15.1632 0.754419 5.5622
42 1 15.1759 0.791357 6.51011
43 1 15.6321 -0.0302209 6.27792
44 1 15.1477 -0.508305 6.94046
45 1 15.4964 0.227769 7.44296
46 1 15.467 -0.430291 8.16324
47 1 16.232 0.0203272 8.49889
48 1 16.2792 -0.0796259 9.44855
49 1 21.2893 -0.478868 4.39699
50 1 20.3653 -0.187567 4.31868
51 1 20.9418 0.364256 3.80987
52 1 20.9875 0.870142 4.64001
53 1 20.7038 0.302169 5.38142
54 1 20.9017 0.0388474 6.30975
55 1 20.0334 -0.0697055 6.68561
56 1 19.7577 -0.45598 7.51922
57 1 20.5088 0.126378 7.60359
58 1 20.9271 -0.730872 7.61729
59 1 20.4883 -0.985363 8.42274
60 1 20.4436 -0.0982095 8.80315
61 1 25.8426 -0.756255 2.80083
62 1 25.6485 -0.499474 3.69558
63 1 24.9873 -0.7873 4.32925
64 1 25.2262 -0.53128 5.23134
65 1 25.6788 0.288083 5.22853
66 1 24.8389 0.508646 5.61699
67 1 25.2049 -0.153664 6.22054
68 1 25.4351 -1.10194 6.29138
69 1 25.8285 -0.596804 6.9824
70 1 25.2276 -0.225375 7.64756
71 1 26.0519 -0.340098 8.18975
72 1 25.3937 0.0831317 8.72591
73 1 -0.667233 6.16661 3.0135
74 1 -0.701828 6.01208 3.9616
75 1 -0.309425 5.26557 4.4529
76 1 -0.276088 5.62356 5.33571
77 1 -0.888229 6.35085 5.40224
78 1 -0.23568 6.99059 5.73184
79 1 -0.135063 6.21804 6.30053
80 1 0.479724 6.62833 6.91014
81 1 -0.310194 6.4097 7.4218
82 1 0.401923 6.854 7.91258
83 1 0.643915 6.7343 8.81625
84 1 0.199173 6.35562 9.59892
85 1 5.21113 6.27153 2.66336
86 1 5.04541 5.95317 3.54302
87 1 4.59678 6.36011 4.27995
88 1 5.06894 6.06362 5.06127
89 1 4.32392 5.70683 5.52478
90 1 4.97935 6.02292 6.11866
91 1 4.18117 6.01849 6.63029
92 1 4.94423 5.49148 6.96471
93 1 4.73606 5.88646 7.82508
94 1 4.2029 6.44664 8.38665
95 1 4.3723 5.63123 8.85321
96 1 5.11679 5.49183 9.4229
97 1 10.8665 5.86117 2.97041
98 1 10.1604 5.34193 3.38584
99 1 9.64532 6.07923 3.75044
100 1 9.97984 5.76182 4.61947
101 1 9.77394 6.18126 5.5023
102 1 10.6075 6.01925 6.02907
103 1 9.97525 5.58229 6.5819
104 1 10.0598 6.42846 7.04231
105 1 9.60192 6.1096 7.80391
106 1 10.4615 5.6828 7.83203
107 1 10.7224 5.42393 8.72542
108 1 10.4239 6.26046 9.05735
109 1 15.1523 6.07 3.15482
110 1 14.3745 6.54824 3.48118
111 1 15.0012 6.95535 4.0998
112 1 14.4672 6.36386 4.64485
113 1 14.8561 6.25333 5.53291
114 1 15.7125 6.00757 5.90918
115 1 16.0216 6.17334 6.79209
116 1 15.6252 5.36121 7.09357
117 1 15.1377 6.1041 7.44819
118 1 15.7423 6.19419 8.19982
119 1 15.1051 5.84528 8.80563
120 1 15.527 5.08276 9.19488
121 1 20.4155 5.17545 3.70622
122 1 20.7417 6.0639 3.87351
123 1 20.0539 6.67818 4.11364
124 1 19.6718 5.82529 4.44116
125 1 20.3144 5.20743 4.78617
126 1 20.3453 6.15469 5.08782
127 1 20.7793 6.00622 5.96129
128 1 20.0658 5.62555 6.53284
129 1 20.3098 5.76846 7.4724
130 1 19.8427 5.6162 8.28559
131 1 19.0173 5.18189 8.53828
132 1 19.3899 5.77614 9.20999
133 1 24.6643 5.95969 3.73105
134 1 25.4454 6.34124 3.32929
135 1 25.8827 6.67831 4.10808
136 1 25.6093 5.78153 4.28863
137 1 25.4348 5.7442 5.21238
138 1 25.1597 5.92377 6.08951
139 1 26.0989 5.80896 6.3797
140 1 25.526 5.87081 7.11509
141 1 25.73 5.50104 7.97068
142 1 25.7113 6.41441 8.30042
143 1 25.5121 6.32836 9.25166
144 1 25.6144 5.36799 9.20771
145 1 0.68974 12.1899 3.132
146 1 -0.121403 12.1494 3.63928
147 1 0.153549 11.4901 4.27298
148 1 0.257097 11.8823 5.13465
149 1 -0.380904 12.3926 4.62518
150 1 -0.640557 12.2319 5.54247
151 1 0.13733 12.6981 5.88473
152 1 0.469957 12.0902 6.55374
153 1 -0.408121 12.2888 6.90813
154 1 -0.324566 12.0426 7.84162
155 1 0.380008 12.0066 8.49487
156 1 0.0204858 11.5083 9.21679
157 1 6.22108 11.2315 2.86196
158 1 5.6092 11.6815 3.46865
159 1 4.87339 12.2755 3.38741
160 1 4.58213 11.6773 4.10017
161 1 4.95427 12.183 4.83215
162 1 4.86985 13.0479 5.23115
163 1 4.74454 12.6393 6.09223
164 1 4.1329 12.1068 6.60314
165 1 4.12416 12.1711 7.56404
166 1 4.91067 11.8857 8.04117
167 1 5.3368 12.5496 8.60256
168 1 4.45843 12.7748 8.33344
169 1 10.2003 11.694 3.46805
170 1 9.9384 12.6086 3.46097
171 1 10.5086 12.4225 4.21133
172 1 9.92858 13.0209 4.70378
173 1 9.96465 12.2047 5.15911
174 1 9.15247 12.6164 5.4767
175 1 9.70647 12.4387 6.24729
176 1 10.2494 12.646 7.03347
177 1 9.65262 12.3048 7.75939
178 1 10.0082 12.382 8.69454
179 1 10.6866 12.9195 9.20078
180 1 10.1225 12.8475 9.96151
181 1 15.7127 12.3139 2.72464
182 1 15.1666 11.5699 2.95666
183 1 15.5104 11.831 3.81273
184 1 15.6146 12.1466 4.72648
185 1 14.9539 12.0186 5.43664
186 1 15.3973 12.4122 6.19427
187 1 15.9291 11.64 6.08902
188 1 16.0904 12.0993 6.9085
189 1 15.1141 11.9488 7.05984
190 1 15.0282 11.8545 8.01128
191 1 14.4905 12.5365 8.40293
192 1 15.4264 12.7375 8.38905
193 1 19.9402 12.1695 2.58803
194 1 19.7155 12.144 3.52002
195 1 20.422 12.5982 3.9661
196 1 20.1643 11.9181 4.57401
197 1 19.9654 11.4983 5.38986
198 1 20.0533 11.5692 6.31995
199 1 19.6178 11.687 7.15003
200 1 20.2829 10.9938 7.18742
201 1 20.5376 10.7012 8.05975
202 1 20.6926 10.9413 8.98776
203 1 20.114 11.6938 9.09017
204 1 20.6825 12.4109 9.3724
205 1 25.9836 11.4154 3.92191
206 1 25.4171 12.1729 4.0616
207 1 24.6694 11.5708 3.90615
208 1 25.2207 10.9174 4.33189
209 1 24.7769 11.4717 5.00739
210 1 25.6974 11.2912 5.17036
211 1 25.8429 12.1534 5.5296
212 1 25.8686 11.7696 6.43993
213 1 25.4507 11.9968 7.29513
214 1 25.2893 11.3202 7.94576
215 1 25.5509 11.9853 8.59776
216 1 25.4519 12.8434 8.1164
217 1 0.425478 18.9319 2.67054
218 1 0.29992 17.9919 2.82047
219 1 -0.0374802 18.2821 3.67118
220 1 0.86138 17.983 3.73657
221 1 0.834464 18.7743 4.30533
222 1 0.410604 18.2473 4.99584
223 1 0.865122 18.4306 5.77924
224 1 0.671431 18.4402 6.6928
225 1 -0.167214 18.1014 7.00248
226 1 0.406779 18.1759 7.76908
227 1 0.0236137 18.0715 8.64461
228 1 0.397016 18.967 8.61731
229 1 5.66593 18.0586 3.074
230 1 5.70271 18.9067 3.47475
231 1 5.65007 18.4566 4.32741
232 1 4.88623 18.1457 4.76745
233 1 4.47462 17.9047 5.5795
234 1 4.86548 18.5888 6.12478
235 1 5.06689 17.7585 6.63173
236 1 5.30621 17.578 7.53686
237 1 5.51254 18.4697 7.22109
238 1 4.83604 18.5224 7.8996
239 1 4.37537 17.766 8.25224
240 1 5.18662 17.3121 8.55885
241 1 10.6663 18.0998 2.21664
242 1 10.9587 18.1062 3.11923
243 1 10.8744 17.6296 3.94623
244 1 10.4701 18.3689 4.38554
245 1 10.1802 18.2481 5.3025
246 1 11.0757 18.242 5.63419
247 1 10.8126 19.0163 6.14453
248 1 10.8996 18.8103 7.08171
249 1 10.4345 19.0818 7.87067
250 1 10.9535 18.4594 8.38115
251 1 10.2159 18.4976 8.99036
252 1 9.30511 18.7976 9.03994
253 1 15.6178 17.482 2.98944
254 1 15.7881 16.8606 3.68466
255 1 15.849 17.6597 4.21843
256 1 15.4102 17.5871 5.072
257 1 15.0596 18.3277 5.58964
258 1 15.3677 17.5989 6.12388
259 1 15.1541 17.702 7.03288
260 1 15.2108 18.5439 7.49782
261 1 14.5228 18.4645 8.15754
262 1 15.2988 18.2569 8.66367
263 1 16.1746 17.8785 8.48341
264 1 16.0827 17.1883 9.13684
265 1 20.1363 17.1948 2.96678
266 1 20.4264 17.3506 3.86027
267 1 19.6091 17.7891 4.12554
268 1 19.5042 16.8836 4.41054
269 1 20.2126 16.8118 5.03907
270 1 19.7161 17.5571 5.3361
271 1 18.9242 18.0856 5.37325
272 1 19.1291 18.4653 6.23325
273 1 19.5631 17.907 6.86599
274 1 19.2836 18.0273 7.79201
275 1 19.8531 18.3766 8.50586
276 1 20.55 17.7412 8.70288
277 1 24.5755 17.5812 2.51114
278 1 24.8111 17.6027 3.45909
279 1 24.9437 17.9412 4.37658
280 1 25.0878 17.9799 5.31973
281 1 25.8966 17.8405 5.83569
282 1 25.9749 17.5913 6.75992
283 1 25.8482 18.5418 6.85017
284 1 25.0663 18.9032 7.2633
285 1 24.932 17.9383 7.22644
286 1 25.0506 18.297 8.1377
287 1 25.6873 17.5953 8.29083
288 1 26.3853 18.043 7.76814
289 1 0.187817 24.9167 2.54975
290 1 0.655603 24.2616 3.07186
291 1 0.431867 24.3236 3.99543
292 1 0.390558 24.1617 4.94669
293 1 -0.10027 24.4734 5.70735
294 1 0.199313 23.62 5.9998
295 1 -0.415011 24.0072 6.60757
296 1 -0.5344 24.9305 6.90622
297 1 -0.374124 24.4639 7.72737
298 1 0.48657 24.4784 7.33338
299 1 0.723716 24.2417 8.22709
300 1 0.644086 24.2552 9.17824
301 1 4.59698 23.9688 2.71625
302 1 4.57842 24.6025 3.41896
303 1 4.93939 23.9488 4.02644
304 1 4.79564 24.1366 4.95865
305 1 4.7993 24.2626 5.90325
306 1 4.71311 23.4195 6.32032
307 1 5.34094 23.8985 6.8858
308 1 4.49131 24.2499 7.12015
309 1 4.1198 24.8929 7.7485
310 1 4.99799 24.5886 7.92463
311 1 5.54414 24.9219 8.63389
312 1 5.15603 24.5401 9.45047
313 1 10.699 25.1031 3.19268
314 1 10.2848 24.2366 3.02779
315 1 10.3064 24.2063 4.00451
316 1 9.88702 23.5739 4.58804
317 1 10.4559 23.9565 5.24314
318 1 10.6034 23.9662 6.18991
319 1 10.1143 23.8427 6.9998
320 1 9.89246 23.1172 7.57108
321 1 9.91178 23.9341 8.06984
322 1 9.90133 24.4397 8.87314
323 1 9.48794 23.6991 9.35404
324 1 9.4618 24.5189 9.84607
325 1 15.5062 24.2949 1.89156
326 1 15.2916 24.1814 2.81725
327 1 15.1566 24.2574 3.76291
328 1 15.2045 23.6792 4.5087
329 1 15.2381 23.0816 5.25127
330 1 15.9804 23.6832 5.39645
331 1 15.7353 23.6238 6.30736
332 1 15.5888 23.9229 7.18635
333 1 16.2863 23.6578 7.77228
334 1 15.6106 24.2041 8.21465
335 1 14.9453 24.3245 8.8986
336 1 14.7001 24.0548 9.79445
337 1 19.9561 23.7762 2.36866
338 1 20.1226 24.2281 3.19456
339 1 19.4712 24.2437 3.90662
340 1 20.3818 24.2499 4.2375
341 1 20.0667 24.5787 5.08541
342 1 20.0598 24.9716 5.94366
343 1 19.7044 24.3874 6.62273
344 1 19.6282 23.8715 7.42536
345 1 20.4801 24.2905 7.46913
346 1 20.4019 23.7734 8.27465
347 1 21.1287 23.5375 8.85339
348 1 20.4594 23.7765 9.49228
349 1 25.7605 24.627 2.98447
350 1 24.866 24.2744 3.03066
351 1 24.4655 24.4332 3.88446
352 1 25.0196 24.1269 4.59395
353 1 25.2651 24.1945 5.51529
354 1 25.9288 24.1099 6.21226
355 1 25.2126 23.7241 6.68827
356 1 24.9346 24.5939 6.99518
357 1 25.3572 24.9326 7.79678
358 1 25.6136 24.0325 7.61111
359 1 25.3796 24.1033 8.53579
360 1 24.8862 23.7168 9.2635
361 2 1.70165 2.14265 21.872
362 2 2.40508 2.48006 22.4376
363 2 3.24122 2.76764 22.0721
364 2 3.33562 3.67583 21.7911
365 2 2.5966 3.619 22.386
366 2 3.16241 4.05259 23.0254
367 2 3.05114 3.25125 23.5759
368 2 2.95078 2.99328 24.5164
369 2 3.56656 3.50188 25.0373
370 2 2.80402 3.41404 25.6148
371 2 2.56955 4.19824 26.1426
372 2 3.23294 3.7814 26.692
373 2 7.53081 3.37053 19.7462
374 2 7.33402 3.43876 20.6915
375 2 7.98972 2.74777 20.8552
376 2 8.0095 3.09291 21.7471
377 2 7.95067 3.51554 22.5981
378 2 7.52373 2.73529 22.9153
379 2 7.22242 2.3016 23.717
380 2 7.08784 2.98803 24.3519
381 2 6.55704 2.97726 25.1336
382 2 7.14216 2.64791 25.8197
383 2 7.12487 1.72602 26.0706
384 2 7.65535 1.90315 26.863
385 2 12.2421 2.02744 20.4244
386 2 12.7519 2.72741 20.8376
387 2 12.3332 2.78826 21.6876
388 2 13.2076 2.58462 22.051
389 2 12.5137 2.58277 22.7031
390 2 13.0195 3.19603 23.2575
391 2 12.6059 2.41588 23.6786
392 2 12.9004 2.93004 24.3999
393 2 13.4513 2.72472 25.1603
394 2 13.3179 2.81983 26.1131
395 2 12.5534 3.35967 25.8386
396 2 12.3556 3.56406 26.7608
397 2 17.7006 2.00592 21.0297
398 2 18.3484 2.66577 21.288
399 2 18.3641 2.27811 22.1704
400 2 18.5564 2.28702 23.1016
401 2 18.2907 3.21661 23.0395
402 2 18.8639 3.06731 23.7914
403 2 18.5221 3.16076 24.7023
404 2 17.7538 2.59256 24.6943
405 2 17.8952 3.06264 25.5414
406 2 17.728 2.60095 26.3749
407 2 17.9997 2.58326 27.3023
408 2 17.7942 3.3186 27.9158
409 2 23.0965 1.76518 20.0252
410 2 23.646 2.53313 20.1995
411 2 23.3932 2.6212 21.1091
412 2 22.5613 2.54275 21.5871
413 2 23.1762 2.64102 22.327
414 2 23.0699 2.54114 23.2699
415 2 23.1601 2.77287 24.1841
416 2 22.5982 1.98482 24.2924
417 2 22.6002 2.49649 25.092
418 2 22.1842 2.87653 25.83
419 2 22.6118 2.08586 26.1898
420 2 22.8378 2.60393 26.9645
421 2 27.6591 2.24491 20.7293
422 2 28.0518 2.9886 21.1966
423 2 27.2496 3.30962 21.6393
424 2 27.9263 2.93589 22.2058
425 2 27.8488 2.80138 23.1492
426 2 27.3145 3.02845 23.8906
427 2 27.3772 2.45241 24.6529
428 2 28.1957 2.77404 25.063
429 2 27.6358 2.64081 25.8334
430 2 28.2533 2.70999 26.5744
431 2 27.8343 3.09659 27.3516
432 2 27.693 2.13766 27.2402
433 2 2.66049 9.47699 21.1131
434 2 2.40083 8.54353 21.2158
435 2 2.91874 8.5332 22.0405
436 2 3.02471 9.40905 22.4266
437 2 2.15212 9.47993 22.0261
438 2 2.03383 9.03698 22.8707
439 2 2.85211 8.9105 23.364
440 2 2.28221 9.42812 23.9462
441 2 2.39362 9.58946 24.91
442 2 1.96276 8.82629 25.3181
443 2 2.88562 8.60303 25.5682
444 2 2.37457 8.57509 26.3939
445 2 7.63864 9.63862 20.3125
446 2 7.48897 9.14553 21.1199
447 2 8.41828 9.3178 21.2434
448 2 7.92204 9.6942 21.9763
449 2 7.2296 9.04835 22.1854
450 2 7.5265 9.46537 22.982
451 2 6.88591 9.53498 23.6898
452 2 7.81128 9.53255 23.9529
453 2 7.18443 9.3109 24.6574
454 2 7.61662 9.38895 25.4822
455 2 7.93774 9.24689 26.3765
456 2 8.45746 8.42972 26.4304
457 2 13.3113 9.43485 21.5335
458 2 12.6088 9.25243 20.8872
459 2 12.1803 9.28746 21.771
460 2 12.4425 8.81197 22.565
461 2 12.268 7.97782 23.0159
462 2 11.6846 8.47215 23.569
463 2 12.2187 9.13213 24.0358
464 2 12.3954 8.58748 24.7935
465 2 11.7868 9.1018 25.3019
466 2 12.4859 9.65266 25.6745
467 2 11.7631 9.4547 26.2596
468 2 12.5056 9.6984 26.8177
469 2 18.1909 9.26858 19.5932
470 2 18.5305 9.5747 20.4297
471 2 17.8339 9.14129 20.9151
472 2 18.3264 9.26823 21.725
473 2 18.6788 9.91585 22.3408
474 2 18.2982 9.3099 22.9755
475 2 17.7015 9.15547 23.716
476 2 17.5242 9.48315 24.5977
477 2 18.1334 8.79363 24.8692
478 2 17.4877 8.08147 24.7696
479 2 16.8437 8.71114 25.1076
480 2 17.447 9.2769 25.581
481 2 22.5046 8.83189 20.1405
482 2 23.1871 9.51252 20.2289
483 2 23.202 9.60024 21.1721
484 2 23.0227 8.69996 21.4386
485 2 23.3856 8.78998 22.3464
486 2 23.679 9.60389 22.8101
487 2 23.0269 9.14866 23.3699
488 2 22.4554 9.05978 24.1497
489 2 23.0025 9.08819 24.946
490 2 23.2069 9.82845 25.511
491 2 23.2785 9.73602 26.465
492 2 23.0084 8.89664 26.8447
493 2 28.5372 10.6403 20.6949
494 2 28.7716 9.81414 21.1212
495 2 29.0503 10.0789 22.0164
496 2 28.1497 9.95572 22.3365
497 2 27.9217 9.13938 21.8412
498 2 28.6963 8.90735 22.3853
499 2 27.9027 8.91742 22.9075
500 2 27.9977 8.75877 23.8353
501 2 27.8034 8.66976 24.748
502 2 28.6861 8.96387 24.9818
503 2 28.0172 8.86263 25.6653
504 2 28.2662 9.06853 26.5551
505 2 2.10136 16.3592 21.8127
506 2 2.6447 16.09 21.0586
507 2 3.03574 15.5515 21.7495
508 2 3.03106 16.0194 22.6009
509 2 2.42462 15.3138 22.8109
510 2 3.00187 15.2952 23.5579
511 2 2.58104 15.2045 24.4006
512 2 2.24261 14.872 25.2235
513 2 2.00651 15.7725 25.3796
514 2 2.6884 15.6733 26.0495
515 2 2.22787 15.9446 26.8452
516 2 2.39499 15.6651 27.7477
517 2 7.43781 14.6869 20.4482
518 2 7.04484 14.6638 21.3405
519 2 7.96647 14.8936 21.3552
520 2 8.1796 15.1664 22.2617
521 2 8.74956 14.859 22.9499
522 2 8.02148 14.6329 23.5272
523 2 8.6081 14.9113 24.2175
524 2 8.54569 15.4732 24.9715
525 2 8.45291 14.6644 25.4802
526 2 7.65796 15.1765 25.4335
527 2 7.23391 15.0891 26.3018
528 2 6.629 15.1462 25.5543
529 2 12.3279 15.1929 20.2853
530 2 12.4757 14.7423 21.1084
531 2 12.9321 15.2773 21.7681
532 2 12.8171 14.3955 22.1559
533 2 12.7183 14.8659 22.9801
534 2 12.4735 15.4082 23.7502
535 2 12.8162 15.2837 24.6554
536 2 13.045 14.3857 24.8984
537 2 12.0846 14.3137 24.8544
538 2 12.1965 15.0708 25.4289
539 2 11.9198 14.4451 26.0839
540 2 11.7007 14.6881 27.0051
541 2 17.0064 15.4144 21.4306
542 2 17.4839 15.4301 20.5803
543 2 18.4308 15.3573 20.6654
544 2 18.0051 15.0363 21.4962
545 2 17.5026 15.0765 22.3512
546 2 17.9539 15.6253 22.9934
547 2 17.1772 15.4562 23.5478
548 2 18.0275 15.2772 23.9528
549 2 17.3861 14.8312 24.5101
550 2 17.1742 14.9228 25.4453
551 2 17.2642 13.9866 25.7391
552 2 17.8196 13.9524 26.5406
553 2 23.8111 14.691 21.1535
554 2 22.9912 14.6403 20.6609
555 2 22.5946 15.2067 21.3433
556 2 23.292 15.0559 22.0204
557 2 22.8389 15.1352 22.885
558 2 22.3581 14.8955 23.7153
559 2 22.8584 15.2684 24.43
560 2 21.9363 15.2666 24.7205
561 2 22.0933 14.4119 25.1466
562 2 22.2319 14.439 26.0969
563 2 22.9473 15.0376 26.2538
564 2 22.6309 15.3863 25.4206
565 2 27.7697 16.2375 22.2647
566 2 27.3675 15.5853 21.6516
567 2 26.9599 14.7089 21.5566
568 2 27.4791 14.2949 22.2734
569 2 27.7588 15.0989 22.6652
570 2 28.0084 15.124 23.569
571 2 28.6443 14.9369 24.2346
572 2 28.0808 15.6907 24.4692
573 2 27.9607 14.9138 25.0444
574 2 27.7812 15.6848 25.5736
575 2 27.1248 15.3862 26.2059
576 2 27.4179 16.2556 26.488
577 2 2.58432 20.1985 20.9901
578 2 1.90116 20.8625 20.9335
579 2 1.28794 20.5208 21.5992
580 2 2.19738 20.5785 21.9084
581 2 2.13945 20.9433 22.7925
582 2 1.29766 20.5032 22.7862
583 2 1.16215 20.4735 23.7335
584 2 1.65425 20.7494 24.5198
585 2 2.54682 20.6973 24.9203
586 2 1.81126 20.6154 25.5066
587 2 1.51288 21.2556 26.146
588 2 2.01264 21.9714 26.5697
589 2 7.10626 21.8451 20.682
590 2 7.14796 21.4258 21.5426
591 2 7.64833 20.7032 21.2166
592 2 7.70076 20.8165 22.1655
593 2 7.37686 21.4598 22.8362
594 2 7.43691 20.5504 23.175
595 2 6.83508 20.8467 23.8517
596 2 7.31134 21.6849 23.9566
597 2 7.06962 21.2299 24.7717
598 2 7.67739 20.969 25.453
599 2 8.13076 20.9493 26.2825
600 2 8.0443 20.6701 27.1825
601 2 13.381 19.8819 20.5096
602 2 12.9107 20.7455 20.4992
603 2 13.213 20.648 21.3811
604 2 12.497 20.509 21.9807
605 2 12.5138 19.9139 22.7501
606 2 12.2161 20.783 23.0069
607 2 12.0303 21.0345 23.9216
608 2 12.8447 21.2671 24.3604
609 2 12.2159 21.0974 25.0374
610 2 12.2777 20.1489 24.89
611 2 12.3647 20.1709 25.8547
612 2 11.9335 20.9533 26.1581
613 2 17.3485 20.3051 21.4552
614 2 18.2311 20.6567 21.4644
615 2 17.8386 20.6471 22.3363
616 2 17.9781 21.6088 22.3137
617 2 17.5664 21.374 23.1564
618 2 17.7063 20.8509 23.9419
619 2 17.5107 21.7575 24.1877
620 2 16.9838 22.0863 24.9245
621 2 17.2116 21.15 24.9671
622 2 16.9895 21.4851 25.8204
623 2 16.5364 21.2459 26.6365
624 2 15.6606 21.4988 26.8942
625 2 23.68 21.5064 20.2279
626 2 23.2341 20.9851 20.8886
627 2 23.8752 21.3742 21.4758
628 2 24.6339 21.4518 22.06
629 2 24.1216 20.8255 22.5992
630 2 23.9267 21.3777 23.3573
631 2 23.1213 21.2142 23.8596
632 2 22.293 20.8322 24.1546
633 2 22.9932 20.3403 24.6217
634 2 22.4076 20.9101 25.1538
635 2 22.082 20.2479 25.778
636 2 22.6139 20.8892 26.2486
637 2 28.2586 20.7941 20.4112
638 2 27.9368 21.5752 20.8776
639 2 28.6032 21.5095 21.5806
640 2 28.4501 21.2348 22.4862
641 2 29.2499 21.7001 22.7782
642 2 29.1775 20.8559 23.2248
643 2 28.5743 20.6603 23.9648
644 2 28.5064 20.3003 24.8506
645 2 27.7805 20.7525 25.2768
646 2 27.6343 21.1772 26.1551
647 2 27.5535 21.0286 27.1318
648 2 27.8107 21.9523 27.1173
649 2 2.35225 27.5042 20.4545
650 2 2.96233 26.9056 20.8903
651 2 2.82035 27.7233 21.3607
652 2 2.74209 27.5577 22.3036
653 2 2.66689 26.9801 23.0682
654 2 2.63863 27.132 24.0209
655 2 1.71754 26.9301 24.2366
656 2 2.21245 26.9048 25.0513
657 2 2.85458 27.6147 25.0244
658 2 2.37271 27.4992 25.8617
659 2 2.57794 26.7687 26.4727
660 2 3.41602 26.6245 26.0359
661 2 7.77475 27.6713 21.317
662 2 8.13116 26.9048 20.8671
663 2 7.52975 26.6535 21.5653
664 2 7.88511 27.2527 22.2111
665 2 7.70506 27.2109 23.1507
666 2 7.90157 26.7337 23.9491
667 2 7.28212 26.4931 24.628
668 2 7.27131 27.4575 24.5401
669 2 8.13307 27.2016 24.905
670 2 7.75616 27.9761 25.3422
671 2 8.14585 27.5861 26.1342
672 2 8.26339 27.1987 26.9998
673 2 13.2794 26.928 20.8082
674 2 12.4063 26.9858 21.2551
675 2 11.6844 26.5823 21.7532
676 2 12.1648 26.2116 22.4852
677 2 11.4814 26.533 23.0744
678 2 11.945 27.3674 23.0032
679 2 12.1764 26.9671 23.8736
680 2 12.9062 27.3799 24.3212
681 2 12.4074 26.9764 25.0231
682 2 12.3654 27.5789 25.7486
683 2 12.9267 26.8805 26.1323
684 2 13.586 26.3904 26.6553
685 2 18.0827 27.3827 20.8406
686 2 17.3659 27.2777 21.4864
687 2 18.0754 26.9393 22.0134
688 2 18.0712 27.7554 22.5226
689 2 17.2868 27.3808 22.9335
690 2 17.7278 27.1253 23.7326
691 2 18.3054 27.6802 24.251
692 2 17.4868 28.1545 24.3364
693 2 17.537 27.3765 24.9221
694 2 17.4868 28.246 25.3402
695 2 17.1568 28.3633 26.2267
696 2 17.7594 28.7383 26.8706
697 2 24.4733 27.0057 21.3269
698 2 23.7552 27.5808 21.6554
699 2 22.9145 28.0249 21.8551
700 2 23.049 27.6541 22.7322
701 2 23.5427 26.8766 22.4498
702 2 23.1611 26.7516 23.3095
703 2 22.594 26.5826 24.0676
704 2 22.8042 27.494 24.2598
705 2 22.8788 28.2233 24.9094
706 2 23.2387 27.5239 25.4439
707 2 22.3994 27.4666 25.9221
708 2 23.1523 27.2423 26.485
709 2 27.5299 26.7894 21.2759
710 2 28.4849 26.7552 21.4089
711 2 28.1244 27.4446 21.9478
712 2 27.4882 26.8607 22.3427
713 2 27.8736 26.4675 23.1455
714 2 28.3062 27.3026 23.3874
715 2 27.9341 27.358 24.2815
716 2 27.0365 27.4425 24.6196
717 2 27.7261 27.2324 25.2871
718 2 27.9611 28.1525 25.1539
719 2 28.3844 28.6028 25.8747
720 2 28.477 27.7233 26.2778
ITEM: TIMESTEP
2000
ITEM: NUMBER OF ATOMS
720
ITEM: BOX BOUNDS pp pp pp
0.0000000000000000e+00 3.2000000000000000e+01
0.0000000000000000e+00 3.2000000000000000e+01
0.0000000000000000e+00 3.2000000000000000e+01
ITEM: ATOMS id type xu yu zu
1 1 -1.2541 -0.635781 6.96248
2 1 -1.35156 -0.156348 6.13079
3 1 -1.06165 0.0745183 5.20086
4 1 -0.242384 0.259224 5.61222
5 1 -0.366559 0.909451 6.32188
6 1 0.430474 0.405092 6.67717
7 1 -0.194839 0.0580575 7.27923
8 1 -0.247148 -0.668596 7.94929
9 1 0.66832 -0.6573 7.72589
10 1 0.452156 -0.879555 6.81581
11 1 0.32603 -0.668018 5.8773
12 1 1.08468 -0.0715406 5.69791
13 1 5.30285 -2.36134 5.7647
14 1 4.70121 -1.70252 6.15868
15 1 5.54447 -1.32831 6.39306
16 1 4.92841 -0.767166 5.94111
17 1 4.91712 -0.450398 6.83172
18 1 5.30666 -0.349252 7.76857
19 1 5.96221 -0.852177 7.26135
20 1 6.37815 -0.277235 7.91512
21 1 5.85504 0.371182 8.40291
22 1 6.2909 1.16197 8.09327
23 1 6.82486 0.735224 7.39835
24 1 6.52084 0.0111073 6.82742
25 1 10.2825 -2.1093 5.48695
26 1 9.72224 -1.35921 5.76512
27 1 10.6387 -1.15813 5.99489
28 1 11.2286 -0.511107 5.61695
29 1 10.3508 -0.104969 5.92764
30 1 10.3884 0.223743 4.9905
31 1 11.2583 0.602353 5.21981
32 1 11.3483 0.667248 6.21324
33 1 11.3238 -0.250771 6.64197
34 1 12.1739 0.141735 6.60744
35 1 13.0527 -0.123989 6.80777
36 1 12.7454 -0.0504643 7.70578
37 1 14.1642 0.634755 6.22337
38 1 14.291 1.39019 6.81775
39 1 15.0971 0.955438 6.46355
40 1 15.9831 1.01465 6.79362
41 1 16.0801 0.271095 7.38587
42 1 15.3823 0.771404 7.8931
43 1 14.8106 -0.0739094 7.8009
44 1 14.1008 -0.112464 7.18204
45 1 14.7362 -0.21954 6.44774
46 1 15.6214 -0.547111 6.43745
47 1 15.3343 -1.43454 6.13082
48 1 15.7575 -0.860479 5.42486
49 1 21.5921 -0.600722 7.57882
50 1 21.8466 -0.60688 6.61907
51 1 21.3329 -0.215685 5.83082
52 1 21.2365 0.582284 6.4444
53 1 20.9238 0.330488 7.34102
54 1 20.3685 -0.374804 7.54417
55 1 20.789 -0.455011 6.66161
56 1 20.0711 -0.712406 6.10219
57 1 19.5236 -0.640569 6.8659
58 1 19.9471 0.189974 6.72438
59 1 20.1247 0.358393 5.78608
60 1 20.834 0.537433 5.15569
61 1 25.4306 -0.906905 3.53628
62 1 25.5659 -0.40297 4.36916
63 1 26.0378 -0.98224 5.00439
64 1 25.4871 -1.56173 4.46553
65 1 25.1889 -1.81102 5.3941
66 1 24.6249 -1.09275 5.25313
67 1 24.5704 -0.786361 6.1904
68 1 25.0006 0.0913388 6.40491
69 1 25.4761 -0.414382 5.71668
70 1 25.8584 -1.25241 6.05056
71 1 26.2319 -0.668499 6.79069
72 1 27.0096 -0.626812 7.3668
73 1 -1.24601 6.69215 8.29428
74 1 -1.03004 6.17173 7.51705
75 1 -1.22098 6.86702 6.92697
76 1 -0.312053 6.93373 7.07468
77 1 -0.161127 6.00221 6.96274
78 1 -0.498705 6.08414 6.08137
79 1 -0.133865 6.9453 6.01308
80 1 0.643509 6.71713 6.58633
81 1 1.14692 7.36382 6.07779
82 1 0.452339 7.81171 5.58154
83 1 0.875821 8.42202 6.11657
84 1 0.443484 7.89563 6.78622
85 1 5.4418 5.69593 6.46707
86 1 6.2288 6.17087 6.15985
87 1 5.73959 6.9196 5.90975
88 1 4.92473 6.65697 6.39
89 1 4.97102 6.02848 5.65742
90 1 4.09829 5.98212 6.04849
91 1 4.37952 5.10495 6.33533
92 1 4.55163 4.28977 5.8894
93 1 3.69971 4.24086 6.32505
94 1 3.48806 5.06074 6.751
95 1 3.67535 4.88551 7.69263
96 1 4.10715 5.6438 8.15323
97 1 10.3196 4.00298 5.99843
98 1 10.9571 4.7355 5.97288
99 1 10.51 5.46154 5.52243
100 1 9.6262 5.76715 5.12309
101 1 9.55549 5.72372 6.12663
102 1 9.8825 4.83267 6.21
103 1 10.4719 4.83595 7.03311
104 1 9.82883 4.857 7.78326
105 1 10.4594 5.58405 7.85201
106 1 10.5619 6.51819 7.79195
107 1 10.4555 6.10667 6.93608
108 1 10.3985 7.06813 6.9257
109 1 14.9813 7.87272 7.19246
110 1 15.7807 7.54472 6.75783
111 1 16.0912 6.87978 6.04538
112 1 16.7246 6.26162 5.61089
113 1 17.2113 5.92767 6.36045
114 1 16.3853 6.0554 6.80837
115 1 15.4667 5.9925 6.98666
116 1 15.0693 5.46724 7.71571
117 1 15.5904 4.65599 7.745
118 1 15.7557 4.91183 6.84761
119 1 16.703 4.97777 6.83487
120 1 16.5705 5.10135 5.8916
121 1 21.3855 5.34087 4.04381
122 1 20.4943 5.39184 4.46232
123 1 20.7879 6.26921 4.37315
124 1 20.0877 6.29138 5.00522
125 1 20.7792 6.08797 5.59451
126 1 20.0329 6.28899 6.15902
127 1 19.4154 5.75643 5.64291
128 1 19.0042 6.60436 5.48722
129 1 18.7439 5.88473 4.82891
130 1 18.4639 5.2858 5.54358
131 1 17.95 4.78033 4.91415
132 1 17.4955 5.56974 5.18857
133 1 23.9852 5.75399 5.24142
134 1 24.3679 6.48609 4.75057
135 1 24.4595 6.77203 5.68023
136 1 24.7805 6.02445 6.23611
137 1 25.6443 6.46753 6.22851
138 1 25.9886 5.74615 5.72551
139 1 25.1634 5.25942 5.59689
140 1 25.4063 5.18874 6.51094
141 1 25.3014 5.60449 7.37416
142 1 25.5864 5.40094 8.29
143 1 26.4201 5.00222 8.22125
144 1 27.0564 5.66992 7.86502
145 1 0.538265 13.0684 4.9711
146 1 -0.164373 12.9834 4.35617
147 1 -0.862945 12.8206 5.00561
148 1 -0.940206 11.8929 4.88156
149 1 -0.147336 12.0235 5.37521
150 1 -0.134156 12.9224 5.76896
151 1 0.740876 12.76 6.04349
152 1 0.454375 13.576 6.52107
153 1 0.808357 13.3045 7.35073
154 1 0.708425 12.3583 7.36282
155 1 -0.0771745 12.2216 6.81179
156 1 -0.225005 12.7888 7.58203
157 1 5.74954 10.6065 5.62107
158 1 5.24864 10.3884 4.82149
159 1 4.28076 10.3191 4.93033
160 1 4.36799 11.2445 4.7718
161 1 3.96907 11.4801 5.5682
162 1 3.90831 12.3241 5.1218
163 1 4.84465 12.184 4.76427
164 1 5.27293 11.5101 5.30358
165 1 4.76832 10.9182 5.87389
166 1 4.89488 11.8594 6.1993
167 1 4.62001 12.6346 5.78709
168 1 3.88274 13.1592 5.72022
169 1 10.7788 12.3957 5.98954
170 1 10.1514 12.5643 5.27991
171 1 10.6331 13.3253 4.97808
172 1 9.92303 13.9728 5.04985
173 1 9.84444 13.9402 6.01599
174 1 9.81285 13.0796 6.4663
175 1 8.88252 13.2287 6.26908
176 1 8.43341 14.0286 6.52116
177 1 8.83305 14.7204 7.05852
178 1 9.72271 14.3307 7.3327
179 1 10.4386 13.6859 7.2582
180 1 11.2588 13.2977 6.94042
181 1 15.0308 11.3855 4.3058
182 1 14.8769 12.3193 4.0261
183 1 15.7518 12.3716 4.4107
184 1 15.7971 11.5708 4.98974
185 1 15.6868 11.0893 5.79381
186 1 15.7013 10.7459 6.66562
187 1 15.6992 11.5253 7.18602
188 1 14.7559 11.4291 7.07993
189 1 14.8955 12.3607 7.16231
190 1 14.6792 12.7366 6.29969
191 1 15.2192 11.9163 6.18058
192 1 15.9436 12.4496 6.53255
193 1 19.9476 12.9531 6.95658
194 1 19.5888 13.6374 6.36584
195 1 20.1477 13.5427 5.60799
196 1 20.6844 12.7601 5.38982
197 1 19.7628 12.4866 5.19614
198 1 19.9524 12.3035 6.08575
199 1 19.1499 12.1809 6.63846
200 1 19.8254 11.4562 6.70111
201 1 20.3608 10.8274 7.23247
202 1 20.2954 10.0901 6.57669
203 1 20.6107 10.8961 6.15715
204 1 21.3126 10.8146 6.85611
205 1 25.6624 9.58849 3.65953
206 1 25.5764 9.84336 4.54901
207 1 24.9546 10.5557 4.72535
208 1 25.0458 11.516 4.63088
209 1 25.8123 11.1253 5.09969
210 1 26.5077 10.4827 5.12044
211 1 26.2579 9.66312 5.5987
212 1 25.6913 10.2213 6.06724
213 1 24.8043 10.513 5.74231
214 1 24.9544 11.457 5.66494
215 1 24.9599 12.2153 6.26683
216 1 25.8462 11.9235 5.94498
217 1 0.242191 19.0025 3.97846
218 1 0.627632 18.8567 3.11296
219 1 0.565618 18.0022 3.60584
220 1 0.582259 17.8993 4.55561
221 1 1.49812 18.1236 4.10698
222 1 1.3578 18.9455 4.68275
223 1 2.04132 19.5237 4.29948
224 1 1.24848 19.738 3.79055
225 1 1.14814 20.2044 4.6542
226 1 0.601759 20.9188 5.05045
227 1 0.201048 20.2668 5.5848
228 1 -0.439583 20.6167 6.21312
229 1 5.58355 19.4253 5.7353
230 1 4.82372 19.9306 6.04275
231 1 4.42185 19.3396 5.37135
232 1 4.75725 18.4109 5.43747
233 1 5.41325 18.6213 4.79707
234 1 6.08054 18.1889 5.38898
235 1 6.32181 17.4172 5.85016
236 1 5.61442 17.3337 6.48926
237 1 5.98411 18.2009 6.78839
238 1 5.64423 18.7159 7.59093
239 1 4.83674 18.2683 7.32669
240 1 4.48368 18.8079 6.59572
241 1 12.8156 18.7247 4.91731
242 1 11.8421 18.7251 5.0705
243 1 12.3099 18.5017 5.85429
244 1 12.6528 18.5324 6.74783
245 1 12.0775 17.7852 6.94799
246 1 11.3442 17.9041 6.30733
247 1 10.7261 18.2955 6.93484
248 1 10.7073 18.9271 6.2315
249 1 10.8322 18.3686 5.47298
250 1 10.528 18.9351 4.75499
251 1 11.1164 19.6791 4.67412
252 1 10.4486 20.36 4.84
253 1 13.7586 18.0086 5.66526
254 1 13.7922 18.0772 6.6145
255 1 14.6441 17.7612 6.43523
256 1 15.0707 17.3074 5.68593
257 1 15.2151 16.5722 6.21686
258 1 14.6162 16.1472 6.80995
259 1 14.5016 16.7808 7.53445
260 1 15.3713 17.1307 7.24914
261 1 15.9429 17.4509 6.54378
262 1 16.1912 18.1196 7.18308
263 1 16.6163 17.2607 7.33554
264 1 17.0883 17.3959 6.52897
265 1 19.6023 17.2744 6.3788
266 1 19.0423 17.4277 5.60162
267 1 19.2231 16.48 5.42671
268 1 18.6998 16.0977 6.09698
269 1 17.988 16.4295 5.55247