ITEM: TIMESTEP
1000
ITEM: NUMBER OF ATOMS
1632
ITEM: BOX BOUNDS pp pp pp
0.0000000000000000e+00 3.2000000000000000e+01
0.0000000000000000e+00 3.2000000000000000e+01
0.0000000000000000e+00 3.2000000000000000e+01
ITEM: ATOMS id type q xu yu zu
1 1 1 0.799328 1.19397 -0.936329
2 1 1 1.16125 0.976579 -0.0667099
3 1 1 1.10456 0.743946 0.864534
4 1 1 0.775753 1.25035 1.59574
5 1 1 0.673833 0.40669 2.05252
6 1 1 0.634036 0.0981285 2.97581
7 1 1 0.726725 0.136445 3.95198
8 1 1 0.541116 0.215157 4.89401
9 1 1 0.225512 -0.120225 5.73794
10 1 1 -0.223977 -0.147232 6.59139
11 1 1 0.271283 -0.181895 7.3989
12 1 1 -0.326001 0.570961 7.41417
13 1 -1 -1.04233 -0.0616413 7.25052
14 1 -1 -0.575042 -0.828964 7.51704
15 1 -1 -0.390303 -0.329763 8.32257
16 1 -1 -0.0848109 -0.171596 9.26039
17 1 -1 0.0104707 0.238407 10.159
18 1 -1 0.49613 0.314248 11.0021
19 1 -1 0.65483 0.343337 11.9497
20 1 -1 0.370829 0.259915 12.8586
21 1 -1 0.325771 0.374827 13.8036
22 1 -1 0.530514 0.625038 14.719
23 1 -1 0.926626 0.76067 15.5819
24 1 -1 0.65992 1.18607 16.4184
25 1 1 5.85452 1.21708 0.119856
26 1 1 5.63195 0.516515 0.709116
27 1 1 5.26211 0.706934 1.5569
28 1 1 5.84445 0.845866 2.28318
29 1 1 5.61615 0.481571 3.1595
30 1 1 5.45643 0.194104 4.075
31 1 1 5.22119 0.241989 5.01006
32 1 1 5.33447 -0.00961309 5.94181
33 1 1 5.57979 0.152102 6.85616
34 1 1 5.321 0.59061 7.65707
35 1 1 4.83955 0.390511 8.46301
36 1 1 4.08314 -0.20952 8.61727
37 1 -1 3.82809 -0.081274 7.71698
38 1 -1 4.65413 -0.129234 7.26147
39 1 -1 4.88223 -0.607937 8.04948
40 1 -1 5.20012 -0.710459 8.94477
41 1 -1 4.81733 -0.179812 9.64837
42 1 -1 4.92291 0.0907203 10.5512
43 1 -1 5.25387 0.00378299 11.467
44 1 -1 5.87951 -0.0757463 12.2421
45 1 -1 6.2115 0.358008 13.0554
46 1 -1 5.88025 0.868758 13.824
47 1 -1 6.31175 0.947733 14.7135
48 1 -1 6.69634 0.881521 15.5703
49 1 1 10.0756 0.559842 0.238197
50 1 1 9.9366 0.239999 1.11829
51 1 1 9.83353 0.316203 2.07484
52 1 1 10.0985 -0.0448773 2.92309
53 1 1 10.0267 -0.626397 3.68949
54 1 1 10.2679 -0.486687 4.62799
55 1 1 10.1016 -0.524157 5.55975
56 1 1 10.1937 -0.42888 6.52138
57 1 1 10.7776 -0.380033 7.28962
58 1 1 11.0565 -0.652385 8.15759
59 1 1 10.2231 -0.407259 8.59273
60 1 1 9.4094 0.0316286 8.3285
61 1 -1 10.0202 0.32945 7.66974
62 1 -1 9.58749 -0.502191 7.41206
63 1 -1 9.38986 -1.12476 8.09085
64 1 -1 9.3361 -1.00109 9.03207
65 1 -1 9.53243 -0.282496 9.62609
66 1 -1 9.89462 -0.621983 10.4557
67 1 -1 9.84527 -0.570272 11.4302
68 1 -1 10.3855 -0.658628 12.2574
69 1 -1 10.9087 -0.506843 13.073
70 1 -1 10.6139 0.01576 13.8198
71 1 -1 10.6436 -0.0977574 14.7799
72 1 -1 10.8809 -0.0332671 15.7162
73 1 1 15.3475 0.533603 -0.951523
74 1 1 15.0802 0.179749 -0.0928469
75 1 1 14.766 0.218748 0.809467
76 1 1 14.6985 0.0634508 1.76204
77 1 1 14.8854 -0.108552 2.67809
78 1 1 15.0703 -0.100663 3.61184
79 1 1 14.9648 -0.163101 4.55565
80 1 1 15.0916 -0.0434609 5.50845
81 1 1 15.2838 0.0784453 6.45008
82 1 1 15.3901 0.0436388 7.411
83 1 1 15.768 0.0575528 8.29093
84 1 1 15.795 -0.872885 8.04966
85 1 -1 15.6181 -1.05242 7.12759
86 1 -1 14.7117 -0.816006 6.89526
87 1 -1 14.6571 -0.68802 7.83462
88 1 -1 14.9593 -0.5712 8.76225
89 1 -1 15.1078 -0.480736 9.72716
90 1 -1 15.1158 -0.478464 10.7102
91 1 -1 15.1962 -0.494796 11.6611
92 1 -1 15.2192 -0.485122 12.6136
93 1 -1 15.0054 -0.271197 13.5376
94 1 -1 15.145 -0.0329734 14.4621
95 1 -1 15.2049 0.365061 15.3396
96 1 -1 15.2243 0.196838 16.2883
97 1 1 19.3138 0.884231 -0.679792
98 1 1 19.0129 0.9271 0.223236
99 1 1 19.1647 0.565289 1.1551
100 1 1 19.4609 0.085147 1.97585
101 1 1 19.852 -0.333132 2.76199
102 1 1 19.9238 -0.260418 3.73431
103 1 1 20.1705 -0.624988 4.59538
104 1 1 20.2249 -0.599016 5.58049
105 1 1 19.8251 -0.631431 6.4841
106 1 1 19.4939 -0.681361 7.39812
107 1 1 20.0286 -0.178685 8.03382
108 1 1 20.9309 -0.482265 7.85357
109 1 -1 20.848 -0.2838 6.9255
110 1 -1 20.784 -1.21317 6.74507
111 1 -1 20.4631 -1.53646 7.58176
112 1 -1 20.4466 -1.26184 8.48548
113 1 -1 20.2364 -0.64459 9.17976
114 1 -1 20.1431 -0.507471 10.1276
115 1 -1 20.1721 -0.527153 11.0987
116 1 -1 20.0154 -0.374283 12.0513
117 1 -1 20.0593 0.0560515 12.9184
118 1 -1 20.3007 0.359282 13.816
119 1 -1 20.2285 0.382419 14.7893
120 1 -1 20.077 0.929757 15.5707
121 1 1 25.5114 2.19838 -0.98889
122 1 1 25.6465 1.88567 -0.08798
123 1 1 25.5734 1.05091 0.404984
124 1 1 26.019 1.27127 1.23007
125 1 1 26.1178 0.974459 2.16939
126 1 1 25.99 0.659275 3.11294
127 1 1 25.913 0.656244 4.0776
128 1 1 25.9215 0.514907 5.01976
129 1 1 25.8589 0.29385 5.94457
130 1 1 25.7753 -0.196143 6.75502
131 1 1 25.9545 0.0358004 7.67299
132 1 1 25.5701 -0.185226 8.52255
133 1 -1 25.5636 -1.00565 8.03466
134 1 -1 25.7492 -1.12922 8.95749
135 1 -1 25.6019 -0.483239 9.67386
136 1 -1 25.8574 0.0297495 10.4574
137 1 -1 26.086 0.39093 11.3421
138 1 -1 26.0403 0.270892 12.308
139 1 -1 25.9788 0.239621 13.2937
140 1 -1 25.7705 0.422759 14.2164
141 1 -1 25.6814 0.552391 15.1685
142 1 -1 25.9129 1.04315 15.9538
143 1 -1 26.2317 1.77012 16.4692
144 1 -1 27.143 1.9945 16.2443
145 1 1 0.665369 5.78196 -1.44529
146 1 1 0.529124 5.82694 -0.481352
147 1 1 0.647852 6.16554 0.430424
148 1 1 0.206971 5.8191 1.22237
149 1 1 0.0943961 5.66297 2.15456
150 1 1 0.162203 5.5671 3.10845
151 1 1 0.37561 5.54221 4.05484
152 1 1 0.227526 5.501 5.01799
153 1 1 -0.181632 5.40922 5.88856
154 1 1 -0.34345 5.36707 6.87116
155 1 1 -0.21309 5.66823 7.81034
156 1 1 -0.901985 5.4315 8.45049
157 1 -1 -1.14664 4.99216 7.66666
158 1 -1 -0.592311 4.37931 8.17371
159 1 -1 -0.308052 4.70758 9.04549
160 1 -1 -0.112151 4.96685 9.93621
161 1 -1 0.178829 5.06935 10.837
162 1 -1 0.150736 5.15985 11.7992
163 1 -1 -0.0574002 5.21617 12.7407
164 1 -1 0.0220212 5.47314 13.6519
165 1 -1 0.209872 5.38347 14.5573
166 1 -1 0.426526 5.30221 15.4823
167 1 -1 0.57415 5.79408 16.3105
168 1 -1 0.921202 6.44516 16.945
169 1 1 6.46076 6.37958 -1.55772
170 1 1 5.86368 6.38515 -0.790177
171 1 1 5.79529 6.22935 0.166085
172 1 1 5.91531 5.94541 1.07423
173 1 1 5.42277 5.90449 1.91561
174 1 1 5.2988 5.42603 2.73262
175 1 1 5.14256 5.04919 3.59823
176 1 1 5.13806 4.96623 4.56626
177 1 1 5.02402 5.08607 5.5231
178 1 1 5.03499 5.14085 6.49671
179 1 1 4.64297 4.53618 7.14504
180 1 1 4.90589 4.56522 8.06518
181 1 -1 5.72109 4.8981 7.67262
182 1 -1 5.02198 5.54395 7.59697
183 1 -1 4.85322 5.56961 8.55977
184 1 -1 5.26977 5.32495 9.39703
185 1 -1 5.45895 5.35816 10.355
186 1 -1 5.46121 5.23503 11.3211
187 1 -1 5.33823 5.20902 12.2737
188 1 -1 5.23877 5.24519 13.244
189 1 -1 5.19737 5.34352 14.1969
190 1 -1 5.28329 5.59589 15.1349
191 1 -1 5.5489 6.04689 15.9409
192 1 -1 6.01911 6.10168 16.771
193 1 1 10.9344 5.58961 -1.86295
194 1 1 11.098 5.58162 -0.918074
195 1 1 10.9812 5.59651 0.0527681
196 1 1 10.9419 5.52215 1.01687
197 1 1 10.744 5.25511 1.94901
198 1 1 10.5525 5.11577 2.90362
199 1 1 10.1045 4.90172 3.75088
200 1 1 10.0286 5.00021 4.7049
201 1 1 10.3149 5.22499 5.61631
202 1 1 10.3638 5.15673 6.56889
203 1 1 10.3199 5.55576 7.44336
204 1 1 10.2895 5.13229 8.30146
205 1 -1 10.433 4.47097 7.61422
206 1 -1 10.2822 4.0465 8.46782
207 1 -1 10.3887 4.52527 9.30537
208 1 -1 10.4857 4.55799 10.2679
209 1 -1 10.0905 4.72518 11.1338
210 1 -1 10.01 5.07921 12.0249
211 1 -1 10.3162 5.32218 12.9007
212 1 -1 10.6055 5.26323 13.8194
213 1 -1 10.6864 5.30785 14.7791
214 1 -1 10.8254 5.75283 15.6302
215 1 -1 10.9785 6.28958 16.431
216 1 -1 10.5119 5.86649 17.1489
217 1 1 14.9261 6.32721 -2.5499
218 1 1 14.9485 5.85614 -1.71347
219 1 1 14.9937 5.81538 -0.748328
220 1 1 15.0212 6.05453 0.187432
221 1 1 15.2235 5.43963 0.901251
222 1 1 15.4304 5.22476 1.79806
223 1 1 15.5011 5.08296 2.74954
224 1 1 15.2527 5.13528 3.69868
225 1 1 15.1221 5.11601 4.66882
226 1 1 15.1428 4.99174 5.62096
227 1 1 15.0983 4.60687 6.50413
228 1 1 15.5059 4.60809 7.36737
229 1 -1 14.7023 5.05464 7.61363
230 1 -1 15.1563 4.85787 8.44334
231 1 -1 15.2809 4.69876 9.39435
232 1 -1 15.1644 4.66985 10.3491
233 1 -1 15.0837 4.85947 11.2927
234 1 -1 15.0906 5.14556 12.2218
235 1 -1 15.2148 5.08658 13.1703
236 1 -1 15.3325 4.81083 14.0791
237 1 -1 15.4621 4.96603 15.0197
238 1 -1 15.5584 5.34481 15.907
239 1 -1 15.2865 5.58721 16.8003
240 1 -1 15.6845 6.17203 17.4549
241 1 1 20.7334 5.53623 -2.03425
242 1 1 20.7129 5.25976 -1.10796
243 1 1 20.6312 5.74117 -0.285332
244 1 1 20.5872 5.78139 0.679929
245 1 1 20.7136 5.24305 1.4749
246 1 1 20.6651 4.98564 2.41478
247 1 1 20.5908 4.86276 3.37681
248 1 1 20.5779 4.93732 4.35337
249 1 1 20.4501 4.94922 5.30963
250 1 1 20.4674 5.17222 6.25245
251 1 1 20.2885 5.60633 7.08943
252 1 1 20.0549 5.25441 7.9555
253 1 -1 20.6742 4.70056 7.47642
254 1 -1 21.0157 4.85794 8.34607
255 1 -1 20.6541 4.98508 9.22906
256 1 -1 20.6398 5.06403 10.1928
257 1 -1 20.3452 5.14067 11.1085
258 1 -1 20.3327 5.40936 12.0434
259 1 -1 20.4038 5.29916 12.9961
260 1 -1 20.7092 5.11043 13.8917
261 1 -1 20.7513 4.92756 14.8411
262 1 -1 20.448 5.29189 15.6813
263 1 -1 19.7862 5.27301 16.3801
264 1 -1 19.5521 5.68211 17.2161
265 1 1 24.9721 6.72418 -1.34788
266 1 1 25.6841 6.56596 -0.743842
267 1 1 25.8267 6.37262 0.191374
268 1 1 25.6469 6.17952 1.14049
269 1 1 25.7443 5.96772 2.10515
270 1 1 25.5557 5.77276 3.03558
271 1 1 25.4534 5.45005 3.94947
272 1 1 25.5283 5.208 4.89345
273 1 1 25.8134 5.13958 5.82027
274 1 1 26.1814 5.17741 6.71435
275 1 1 26.1025 5.51976 7.61501
276 1 1 25.3134 5.17776 8.02003
277 1 -1 25.3207 4.57735 7.27868
278 1 -1 26.1492 4.45379 7.77841
279 1 -1 26.1457 4.87111 8.66491
280 1 -1 25.9554 4.9463 9.62709
281 1 -1 25.8908 4.84132 10.5911
282 1 -1 26.1349 4.99898 11.51
283 1 -1 26.2155 5.22401 12.4516
284 1 -1 26.1505 5.68679 13.3051
285 1 -1 26.0281 5.587 14.2551
286 1 -1 26.2639 5.97567 15.1088
287 1 -1 26.2442 6.56294 15.8573
288 1 -1 25.6086 6.68959 16.5607
289 1 1 0.932035 10.8248 -0.638926
290 1 1 1.15554 10.7123 0.257504
291 1 1 1.12807 10.7541 1.22079
292 1 1 0.690484 10.5676 2.07923
293 1 1 0.228217 10.5045 2.9354
294 1 1 0.363455 10.3835 3.87921
295 1 1 0.185356 10.2937 4.82287
296 1 1 0.0705786 10.3927 5.79133
297 1 1 0.5297 10.2806 6.64659
298 1 1 0.854213 10.4135 7.55443
299 1 1 0.278177 10.6363 8.29511
300 1 1 0.314354 9.70515 8.26541
301 1 -1 0.396238 9.4603 7.35314
302 1 -1 -0.24617 10.207 7.432
303 1 -1 -1.09357 9.984 7.81695
304 1 -1 -0.652207 10.062 8.68534
305 1 -1 0.0509678 10.1388 9.34825
306 1 -1 0.202096 10.162 10.3163
307 1 -1 0.272417 10.2632 11.2848
308 1 -1 0.237697 10.651 12.1744
309 1 -1 0.397892 11.1584 12.9888
310 1 -1 0.931001 11.2233 13.7903
311 1 -1 0.984196 11.2659 14.7299
312 1 -1 1.35077 11.4551 15.5931
313 1 1 6.52657 10.6939 -2.41519
314 1 1 6.72009 10.9444 -1.50938
315 1 1 6.70126 10.7684 -0.529119
316 1 1 6.43783 10.5301 0.399098
317 1 1 5.78561 10.3462 1.09571
318 1 1 5.90599 10.0941 2.0375
319 1 1 5.74653 10.0937 2.98958
320 1 1 5.68568 10.2975 3.94339
321 1 1 5.51701 10.316 4.89315
322 1 1 5.45228 10.4075 5.819
323 1 1 5.81985 10.5302 6.69124
324 1 1 5.26342 10.9363 7.36948
325 1 -1 4.70052 10.2899 6.94489
326 1 -1 5.21216 9.85082 7.63008
327 1 -1 5.23478 10.2846 8.49838
328 1 -1 5.27745 10.2334 9.47947
329 1 -1 5.52564 10.1933 10.4171
330 1 -1 5.71408 10.2127 11.3755
331 1 -1 5.9602 10.4479 12.2874
332 1 -1 5.93748 10.3556 13.2606
333 1 -1 5.78172 10.386 14.2187
334 1 -1 5.9164 10.558 15.1562
335 1 -1 6.4188 10.9145 15.8936
336 1 -1 6.50539 11.1483 16.8199
337 1 1 10.3588 10.4429 -2.22717
338 1 1 10.206 10.2889 -1.28632
339 1 1 10.2684 10.4112 -0.336407
340 1 1 10.1715 10.2999 0.614651
341 1 1 9.80113 9.96036 1.43519
342 1 1 9.88093 9.95315 2.40013
343 1 1 9.9831 10.0074 3.36719
344 1 1 10.3312 9.95575 4.27033
345 1 1 10.2246 9.81025 5.20534
346 1 1 10.2759 9.80879 6.17396
347 1 1 10.8145 9.51867 6.94144
348 1 1 10.7705 9.94607 7.82977
349 1 -1 9.97064 9.96059 7.30754
350 1 -1 9.76466 9.69852 8.20667
351 1 -1 10.2474 9.6932 9.04164
352 1 -1 10.4028 9.77275 9.98969
353 1 -1 10.5071 9.98138 10.9381
354 1 -1 10.4476 10.0839 11.9167
355 1 -1 10.4837 10.3728 12.8595
356 1 -1 10.8272 10.3543 13.7607
357 1 -1 10.8516 10.1466 14.6969
358 1 -1 10.5412 9.81193 15.539
359 1 -1 10.5278 10.1091 16.4447
360 1 -1 10.6708 10.1485 17.3933
361 1 1 16.1086 11.4298 -1.812
362 1 1 15.929 10.9484 -0.998535
363 1 1 15.9625 10.9989 -0.0418074
364 1 1 15.8888 11.3622 0.869861
365 1 1 15.898 10.8356 1.70583
366 1 1 16.0613 10.5958 2.64833
367 1 1 15.7799 10.5133 3.57017
368 1 1 15.4596 10.6353 4.46596
369 1 1 15.3981 10.7006 5.42535
370 1 1 15.3811 10.8948 6.34465
371 1 1 15.0574 11.3659 7.11239
372 1 1 14.9421 10.7069 7.8067
373 1 -1 14.5831 10.3916 6.98079
374 1 -1 15.508 10.104 7.05732
375 1 -1 15.7224 10.0103 8.00151
376 1 -1 15.378 10.2482 8.88562
377 1 -1 15.5067 10.5281 9.8222
378 1 -1 15.6015 10.4169 10.7763
379 1 -1 15.7964 10.7696 11.653
380 1 -1 15.6118 11.0924 12.5677
381 1 -1 15.3552 10.8678 13.4651
382 1 -1 15.366 11.0279 14.4315
383 1 -1 15.524 11.3706 15.3123
384 1 -1 15.6796 11.8638 16.1246
385 1 1 20.916 10.8577 -2.18671
386 1 1 20.8695 10.8761 -1.22383
387 1 1 20.504 10.9005 -0.331101
388 1 1 20.3677 10.9997 0.620403
389 1 1 20.7813 10.7055 1.42839
390 1 1 20.779 10.6725 2.39008
391 1 1 20.4489 10.4413 3.26983
392 1 1 20.3015 10.3261 4.21652
393 1 1 20.3634 10.2935 5.18985
394 1 1 20.1453 10.1855 6.13217
395 1 1 20.0126 9.69533 6.96377
396 1 1 19.9184 10.4251 7.57095
397 1 -1 20.7055 10.5636 7.04688
398 1 -1 20.8648 10.1353 7.89939
399 1 -1 20.6449 10.1542 8.83709
400 1 -1 20.7224 9.95426 9.77208
401 1 -1 20.6918 10.0332 10.7243
402 1 -1 20.6163 10.1156 11.6896
403 1 -1 20.4445 10.4581 12.5725
404 1 -1 20.2518 10.6107 13.4907
405 1 -1 20.4042 10.1142 14.2891
406 1 -1 20.5539 10.0242 15.236
407 1 -1 20.3118 9.98901 16.1613
408 1 -1 19.9889 9.81257 17.0459
409 1 1 26.6837 11.3045 -1.78164
410 1 1 26.7444 11.1674 -0.839716
411 1 1 26.1642 11.176 -0.0542286
412 1 1 26.049 11.0922 0.900319
413 1 1 26.2267 10.8611 1.82869
414 1 1 25.9775 10.8103 2.77271
415 1 1 25.8047 10.7484 3.72391
416 1 1 25.8609 10.6103 4.68288
417 1 1 26.162 10.6163 5.59777
418 1 1 26.2485 10.7199 6.56811
419 1 1 26.3201 11.1553 7.43324
420 1 1 26.0413 10.7571 8.25208
421 1 -1 26.22 10.0814 7.60867
422 1 -1 25.7063 9.60141 8.26472
423 1 -1 26.0162 9.97184 9.08391
424 1 -1 26.0422 10.261 10.0094
425 1 -1 26.0514 10.5246 10.9236
426 1 -1 26.0592 10.6611 11.8701
427 1 -1 26.1401 10.4826 12.8056
428 1 -1 25.8882 10.7759 13.7053
429 1 -1 25.9953 10.8048 14.6798
430 1 -1 26.0127 10.2653 15.4809
431 1 -1 25.7643 10.4652 16.3867
432 1 -1 25.5308 10.9843 17.1743
433 1 1 1.29966 15.8637 -1.02082
434 1 1 1.00677 16.2676 -0.173779
435 1 1 0.796571 15.8951 0.708665
436 1 1 0.435499 15.5604 1.54856
437 1 1 -0.0412221 15.4791 2.38157
438 1 1 0.197652 15.3512 3.323
439 1 1 -0.176415 15.5783 4.20478
440 1 1 -0.311399 15.4081 5.16258
441 1 1 -0.197341 15.2663 6.12077
442 1 1 0.0203275 14.8101 6.95892
443 1 1 -0.260468 14.4048 7.80622
444 1 1 -0.0209479 15.1278 8.40081
445 1 -1 -0.0322249 15.7774 7.69593
446 1 -1 -0.872481 15.3176 7.50249
447 1 -1 -1.00729 15.7723 8.33533
448 1 -1 -0.73884 15.4163 9.18011
449 1 -1 -0.593338 15.4666 10.124
450 1 -1 -0.643661 15.5791 11.0871
451 1 -1 -0.408852 15.6028 12.0172
452 1 -1 -0.14393 15.4918 12.9397
453 1 -1 0.218736 15.1196 13.7616
454 1 -1 0.361011 15.2638 14.6975
455 1 -1 0.335662 15.3772 15.6555
456 1 -1 0.720457 15.8003 16.4428
457 1 1 5.82333 16.4529 -2.63222
458 1 1 5.93201 16.2367 -1.69946
459 1 1 6.21557 16.4421 -0.802029
460 1 1 6.05845 16.209 0.120442
461 1 1 5.58371 16.1002 0.936971
462 1 1 5.36761 15.7659 1.80074
463 1 1 5.15582 15.4951 2.71226
464 1 1 5.32079 15.6248 3.65755
465 1 1 5.38442 15.8304 4.60516
466 1 1 5.43082 15.7199 5.58127
467 1 1 5.32508 15.2936 6.45761
468 1 1 5.80271 15.3712 7.30854
469 1 -1 4.86699 15.1562 7.4384
470 1 -1 5.2378 15.365 8.29089
471 1 -1 4.9399 15.3878 9.21429
472 1 -1 4.96239 15.3689 10.1809
473 1 -1 5.20426 15.2218 11.1038
474 1 -1 5.4447 15.1619 12.0247
475 1 -1 5.38321 15.2067 12.9905
476 1 -1 5.1519 15.2662 13.9326
477 1 -1 5.04074 15.225 14.8782
478 1 -1 4.97286 15.4406 15.8064
479 1 -1 5.43258 15.6764 16.6104
480 1 -1 5.68139 16.0676 17.4519
481 1 1 11.5467 15.3112 -3.0191
482 1 1 11.3035 15.5114 -2.12575
483 1 1 11.3239 15.4441 -1.15866
484 1 1 11.5561 15.3602 -0.23249
485 1 1 11.1543 15.3095 0.647317
486 1 1 10.8219 15.2647 1.56017
487 1 1 10.4099 15.362 2.44601
488 1 1 10.4794 15.3465 3.41317
489 1 1 10.5355 15.1504 4.36453
490 1 1 10.4262 15.2212 5.31692
491 1 1 10.4175 15.3641 6.26521
492 1 1 10.7648 15.0036 7.09385
493 1 -1 10.47 15.9073 7.19682
494 1 -1 10.2438 15.4316 7.9837
495 1 -1 10.1493 15.4846 8.95119
496 1 -1 10.2558 15.6932 9.88859
497 1 -1 10.6021 15.8612 10.7636
498 1 -1 10.934 15.7941 11.6757
499 1 -1 11.1321 15.7714 12.6337
500 1 -1 10.9226 15.6716 13.5766
501 1 -1 10.7005 15.6019 14.5197
502 1 -1 10.8123 15.5718 15.4737
503 1 -1 10.949 15.34 16.4009
504 1 -1 10.759 15.357 17.3451
505 1 1 14.7384 16.36 -2.27858
506 1 1 14.7763 16.9201 -1.49815
507 1 1 14.8865 16.6197 -0.568034
508 1 1 14.9373 16.4738 0.387433
509 1 1 15.4927 16.6934 1.14932
510 1 1 15.3723 16.2832 2.02814
511 1 1 15.4195 15.864 2.89619
512 1 1 15.3184 15.7396 3.84096
513 1 1 15.0883 15.7948 4.77328
514 1 1 14.9746 15.7917 5.72948
515 1 1 15.0423 16.0011 6.66703
516 1 1 15.1156 16.1255 7.62139
517 1 -1 15.8368 15.5895 7.29072
518 1 -1 15.51 15.2853 8.13956
519 1 -1 15.5376 15.3733 9.12157
520 1 -1 15.6485 15.6255 10.0589
521 1 -1 15.6503 15.7368 11.0287
522 1 -1 15.7339 15.8169 11.9936
523 1 -1 15.7184 15.9407 12.9533
524 1 -1 15.5741 16.1475 13.8881
525 1 -1 15.816 15.9028 14.7807
526 1 -1 16.3707 15.8949 15.5587
527 1 -1 16.3946 15.5505 16.4564
528 1 -1 16.0661 15.1857 17.2898
529 1 1 20.2481 16.2303 -2.74523
530 1 1 20.6335 16.2086 -1.86668
531 1 1 20.6504 16.0785 -0.914422
532 1 1 20.4568 15.8628 -3.77626e-05
533 1 1 20.8428 15.9012 0.883945
534 1 1 20.9438 15.8113 1.84292
535 1 1 20.7104 15.7764 2.77992
536 1 1 20.5429 15.4382 3.66707
537 1 1 20.5828 15.4011 4.633
538 1 1 20.5824 15.5079 5.60239
539 1 1 20.4295 15.5772 6.54757
540 1 1 20.1153 15.2972 7.41991
541 1 -1 20.5163 16.1625 7.48021
542 1 -1 20.4915 15.7933 8.369
543 1 -1 20.7129 15.7226 9.30856
544 1 -1 20.873 15.8825 10.2563
545 1 -1 20.7786 16.0182 11.2083
546 1 -1 20.5901 16.379 12.0935
547 1 -1 20.3749 16.3913 13.0109
548 1 -1 20.8132 16.3808 13.8562
549 1 -1 21.3684 16.5985 14.6043
550 1 -1 21.4825 16.4873 15.5375
551 1 -1 20.9556 16.3706 16.3216
552 1 -1 20.6782 16.4689 17.2192
553 1 1 24.9664 16.0648 -1.74963
554 1 1 25.3635 16.2648 -0.902197
555 1 1 25.2086 15.915 -0.0146338
556 1 1 25.0878 15.9119 0.940462
557 1 1 25.4983 15.8511 1.82713
558 1 1 25.2216 15.725 2.73805
559 1 1 25.2766 15.7917 3.70249
560 1 1 25.3962 15.6161 4.66314
561 1 1 25.5017 15.5402 5.62815
562 1 1 25.4558 15.3589 6.59047
563 1 1 25.229 15.4344 7.54335
564 1 1 25.7609 14.6154 7.53185
565 1 -1 26.3192 15.3588 7.33258
566 1 -1 26.0519 15.5073 8.25232
567 1 -1 25.9195 15.406 9.21025
568 1 -1 25.8974 15.5581 10.1591
569 1 -1 26.0332 15.6469 11.1071
570 1 -1 26.0843 15.7593 12.0675
571 1 -1 26.2513 15.8566 13.0213
572 1 -1 26.2566 15.7775 13.9704
573 1 -1 26.2729 15.8222 14.9076
574 1 -1 26.3211 16.0743 15.8112
575 1 -1 25.8358 15.687 16.5397
576 1 -1 26.3643 16.0615 17.2469
577 1 1 0.538448 19.8422 -1.01026
578 1 1 0.171282 20.4164 -0.319687
579 1 1 0.268685 20.4867 0.631284
580 1 1 0.177013 20.3421 1.57494
581 1 1 -0.138955 20.3605 2.48491
582 1 1 -0.123434 20.2353 3.42813
583 1 1 -0.066389 20.4352 4.3697
584 1 1 -0.192913 20.3558 5.33668
585 1 1 -0.239926 20.3407 6.32129
586 1 1 0.184476 20.2637 7.19863
587 1 1 0.0254202 19.9027 8.083
588 1 1 -0.118394 20.8386 8.11273
589 1 -1 -0.780712 20.3658 7.56942
590 1 -1 -1.15789 20.6436 8.41524
591 1 -1 -0.479795 20.3623 9.02056
592 1 -1 -0.492735 20.4551 9.97823
593 1 -1 -0.352445 20.5233 10.9248
594 1 -1 -0.297564 20.4894 11.883
595 1 -1 -0.235514 20.6217 12.831
596 1 -1 0.163316 20.8411 13.6803
597 1 -1 0.439147 21.3916 14.486
598 1 -1 0.440595 21.3966 15.4508
599 1 -1 0.625371 21.263 16.3896
600 1 -1 0.845845 21.7562 17.2091
601 1 1 6.81194 21.1086 -2.27319
602 1 1 6.35704 20.878 -1.43969
603 1 1 6.371 20.7518 -0.471169
604 1 1 6.32499 20.8588 0.495206
605 1 1 5.86868 21.0595 1.3167
606 1 1 5.8274 21.0701 2.28758
607 1 1 5.8197 20.9469 3.25936
608 1 1 5.68234 20.5224 4.1295
609 1 1 5.42618 20.2705 5.02252
610 1 1 5.36727 20.2061 5.99378
611 1 1 5.20078 20.419 6.91836
612 1 1 5.18846 21.034 7.65992
613 1 -1 4.46687 20.4458 7.8803
614 1 -1 4.91884 20.72 8.69598
615 1 -1 4.89072 20.8115 9.65698
616 1 -1 4.86522 20.8639 10.6152
617 1 -1 4.99079 20.6164 11.5492
618 1 -1 5.19652 20.4984 12.4935
619 1 -1 5.34393 20.5818 13.4441
620 1 -1 5.48743 20.8016 14.3745
621 1 -1 5.40514 21.2751 15.1993
622 1 -1 5.58639 21.3281 16.1376
623 1 -1 6.17271 21.2958 16.9024
624 1 -1 5.98337 21.2277 17.8436
625 1 1 11.2963 21.5875 -1.58723
626 1 1 11.1244 21.1399 -0.751651
627 1 1 11.0368 20.7112 0.100501
628 1 1 10.7482 20.7225 1.01892
629 1 1 10.5981 21.0472 1.9119
630 1 1 10.5408 20.9255 2.87767
631 1 1 10.4853 20.8429 3.83715
632 1 1 10.3301 20.459 4.71205
633 1 1 10.2998 20.438 5.67059
634 1 1 10.207 20.3139 6.62218
635 1 1 10.0184 20.0848 7.53624
636 1 1 10.5684 20.5965 8.14111
637 1 -1 10.3715 21.1684 7.39261
638 1 -1 9.51118 21.0673 7.79793
639 1 -1 9.78553 21.0848 8.72112
640 1 -1 10.0311 21.0779 9.64658
641 1 -1 10.1535 20.9297 10.594
642 1 -1 10.2382 20.9203 11.5433
643 1 -1 10.6902 21.036 12.3842
644 1 -1 10.9189 21.0316 13.3205
645 1 -1 10.9312 21.4432 14.1996
646 1 -1 10.8358 21.6849 15.1186
647 1 -1 11.2071 21.2395 15.8837
648 1 -1 11.6294 20.9681 16.71
649 1 1 17.1222 21.0251 -2.89978
650 1 1 16.6165 20.7705 -2.09906
651 1 1 16.3416 20.7125 -1.17982
652 1 1 16.1453 20.6501 -0.266745
653 1 1 16.2052 21.0742 0.570127
654 1 1 16.1139 21.1776 1.52678
655 1 1 15.9134 21.4557 2.41009
656 1 1 16.0866 21.3225 3.34152
657 1 1 16.066 20.9887 4.2454
658 1 1 16.2979 20.842 5.19012
659 1 1 16.1859 21.2447 6.05432
660 1 1 16.2494 21.5078 6.97598
661 1 -1 15.9825 21.3343 7.87812
662 1 -1 15.8995 21.2785 8.80764
663 1 -1 15.6256 21.163 9.69705
664 1 -1 15.6203 20.8713 10.6061
665 1 -1 16.1357 20.8744 11.4313
666 1 -1 16.2648 21.1043 12.3566
667 1 -1 16.1386 21.2164 13.3282
668 1 -1 16.0628 20.808 14.2152
669 1 -1 16.3714 21.0729 15.0653
670 1 -1 16.0231 21.1161 15.9525
671 1 -1 16.1906 21.0126 16.8698
672 1 -1 16.0236 21.4869 17.7
673 1 1 21.798 21.5427 -1.14103
674 1 1 21.8364 22.0069 -0.298508
675 1 1 21.6337 21.3344 0.339946
676 1 1 21.5984 21.4763 1.2657
677 1 1 21.8739 21.7726 2.11919
678 1 1 21.5726 21.7552 3.05721
679 1 1 21.6673 21.6246 4.04082
680 1 1 21.3962 21.4733 4.97103
681 1 1 21.018 21.6163 5.85113
682 1 1 20.911 21.6261 6.79831
683 1 1 21.3279 21.4879 7.63712
684 1 1 20.4943 21.1075 7.90579
685 1 -1 20.356 22.0529 7.60442
686 1 -1 20.5954 21.9526 8.51545
687 1 -1 20.9978 21.8977 9.39923
688 1 -1 21.2891 21.9162 10.3245
689 1 -1 21.4602 21.8647 11.2634
690 1 -1 21.8147 21.8507 12.1565
691 1 -1 22.142 22.1278 13.0077
692 1 -1 21.9152 21.6687 13.8306
693 1 -1 22.0528 22.3456 14.4938
694 1 -1 21.7194 22.4174 15.4012
695 1 -1 22.1133 22.6668 16.2484
696 1 -1 22.4348 21.7722 16.4277
697 1 1 23.7307 21.3431 -2.25341
698 1 1 23.6132 21.4512 -1.30192
699 1 1 24.2529 21.1712 -0.632989
700 1 1 24.64 21.0504 0.254194
701 1 1 25.1647 21.3598 1.00173
702 1 1 25.4153 21.6641 1.906
703 1 1 25.4322 21.3716 2.82912
704 1 1 25.5022 21.2064 3.78283
705 1 1 25.64 21.3422 4.72916
706 1 1 25.6697 21.2819 5.69139
707 1 1 25.7369 21.2614 6.65791
708 1 1 25.8532 21.0232 7.59088
709 1 -1 25.6485 21.3225 8.48561
710 1 -1 26.0029 21.437 9.37773
711 1 -1 25.9325 21.5784 10.3298
712 1 -1 25.9443 21.6865 11.2796
713 1 -1 25.8115 21.7426 12.2308
714 1 -1 25.4859 21.6901 13.1199
715 1 -1 25.3136 21.6614 14.068
716 1 -1 25.3137 21.7449 15.0222
717 1 -1 25.1547 22.1998 15.8471
718 1 -1 25.1047 22.1093 16.8087
719 1 -1 25.1416 22.0794 17.7683
720 1 -1 25.921 22.1056 18.3334
721 1 1 1.76837 23.5871 -0.671205
722 1 1 1.52721 24.4246 -0.274844
723 1 1 1.00951 24.9325 0.335615
724 1 1 0.885005 24.5755 1.20248
725 1 1 0.355308 24.7234 2.01134
726 1 1 0.00188117 24.7831 2.92522
727 1 1 0.16005 25.09 3.83707
728 1 1 -0.0640058 25.3071 4.76383
729 1 1 -0.22791 25.2278 5.73095
730 1 1 -0.40956 25.4155 6.66037
731 1 1 -0.128606 25.3958 7.58469
732 1 1 -0.601465 24.7659 8.12126
733 1 -1 -1.24043 25.2955 7.62303
734 1 -1 -0.853924 25.9709 8.19184
735 1 -1 -0.869137 25.6401 9.10269
736 1 -1 -0.834905 25.5616 10.0758
737 1 -1 -0.76807 25.5266 11.0588
738 1 -1 -0.615411 25.3924 12.0149
739 1 -1 -0.426791 25.1077 12.9238
740 1 -1 0.00923092 25.0455 13.7908
741 1 -1 0.0383016 25.3385 14.7106
742 1 -1 0.240415 24.8712 15.5195
743 1 -1 0.661832 24.3846 16.2191
744 1 -1 0.986918 23.8196 16.901
745 1 1 6.28253 25.4693 -0.930769
746 1 1 5.99063 25.9881 -0.186109
747 1 1 6.0276 25.8534 0.758135
748 1 1 5.78592 26.1435 1.65317
749 1 1 5.60537 26.4876 2.54153
750 1 1 5.72767 26.2242 3.47075
751 1 1 5.49538 25.9564 4.35721
752 1 1 5.47742 25.9897 5.32543
753 1 1 5.52405 26.0089 6.29432
754 1 1 5.64051 26.019 7.23506
755 1 1 5.70441 25.8149 8.16358
756 1 1 5.17926 25.0232 8.27459
757 1 -1 4.84337 25.3739 7.44097
758 1 -1 4.30961 26.0066 7.95592
759 1 -1 4.81203 26.1347 8.76663
760 1 -1 4.97624 25.9363 9.69842
761 1 -1 4.8865 25.7483 10.6462
762 1 -1 4.82421 25.759 11.6258
763 1 -1 5.21249 25.807 12.5093
764 1 -1 5.69904 25.8056 13.364
765 1 -1 5.76058 25.7633 14.328
766 1 -1 5.52651 25.9457 15.2604
767 1 -1 5.91808 26.1069 16.1271
768 1 -1 5.89051 26.7671 16.8235
769 1 1 10.9691 26.7249 -1.69614
770 1 1 10.8086 26.6955 -0.750465
771 1 1 10.7153 26.1674 0.047978
772 1 1 10.7946 26.2125 1.00493
773 1 1 10.7606 26.3548 1.98194
774 1 1 10.5791 26.0108 2.87602
775 1 1 10.6453 25.816 3.83109
776 1 1 10.4626 25.8912 4.78626
777 1 1 10.2699 25.6286 5.70359
778 1 1 10.3146 25.5178 6.6442
779 1 1 9.97266 25.3296 7.52167
780 1 1 9.7758 26.2644 7.40725
781 1 -1 10.7165 26.3223 7.23066
782 1 -1 10.6208 26.014 8.14454
783 1 -1 10.6848 25.9888 9.11426
784 1 -1 10.701 26.0882 10.0825
785 1 -1 10.5587 26.1399 11.0416
786 1 -1 10.5541 26.0988 12.0193
787 1 -1 10.8136 26.1188 12.9581
788 1 -1 11.2304 25.9878 13.8345
789 1 -1 11.485 26.0537 14.7616
790 1 -1 11.3379 26.088 15.7044
791 1 -1 11.7357 26.1964 16.5604
792 1 -1 11.9837 26.5247 17.4191
793 1 1 16.5894 25.6198 -1.57066
794 1 1 16.2712 25.87 -0.711408
795 1 1 16.2683 26.108 0.206855
796 1 1 16.4226 26.2242 1.15612
797 1 1 16.7871 26.1751 2.06392
798 1 1 16.7298 26.0439 3.02174
799 1 1 16.5082 26.2019 3.96072
800 1 1 16.7385 26.3236 4.88891
801 1 1 16.4269 26.3087 5.80459
802 1 1 16.5529 26.3283 6.77189
803 1 1 15.9848 25.9416 7.4531
804 1 1 16.7058 25.6814 8.04282
805 1 -1 17.3582 26.182 7.54604
806 1 -1 16.5803 26.6949 7.76104
807 1 -1 16.6202 26.4086 8.68707
808 1 -1 16.7052 26.1585 9.61639
809 1 -1 16.7088 26.0208 10.5726
810 1 -1 16.5296 26.1736 11.5238
811 1 -1 16.6793 25.9168 12.4463
812 1 -1 16.7141 25.6612 13.3884
813 1 -1 16.9385 25.9786 14.2568
814 1 -1 16.5776 25.9304 15.1536
815 1 -1 16.5963 25.9553 16.1193
816 1 -1 16.9987 25.8333 16.9609
817 2 1 0.345935 1.35282 12.2595
818 2 1 0.293332 1.26592 13.2601
819 2 1 1.11072 1.4306 13.7846
820 2 1 1.22463 1.72032 14.7019
821 2 1 1.41897 1.74525 15.6453
822 2 1 1.55178 1.69828 16.6153
823 2 1 1.42846 1.5494 17.5743
824 2 1 1.4248 1.45011 18.5513
825 2 1 1.56159 1.8119 19.482
826 2 1 1.74305 1.96712 20.4071
827 2 1 1.77273 1.87539 21.3457
828 2 1 1.77635 1.60754 22.2887
829 2 -1 1.93864 1.42105 23.2442
830 2 -1 2.00353 1.5257 24.2172
831 2 -1 2.07493 1.5464 25.1845
832 2 -1 2.09693 1.23377 26.139
833 2 -1 2.17509 1.33808 27.1416
834 2 -1 2.03512 1.25196 28.1328
835 2 -1 1.79396 0.966509 29.0679
836 2 -1 1.81697 1.25173 30.0122
837 2 -1 2.08663 1.47772 30.901
838 2 -1 2.10506 1.51189 31.8609
839 2 -1 2.09499 1.21003 32.7824
840 2 -1 1.86154 0.819352 33.6361
841 2 1 6.46367 1.51539 13.1751
842 2 1 6.89712 1.31628 14.0246
843 2 1 7.45329 1.58695 14.796
844 2 1 7.59628 2.06155 15.6284
845 2 1 7.63387 1.81161 16.5672
846 2 1 7.66519 1.67133 17.5254
847 2 1 7.4228 1.6414 18.4585
848 2 1 7.37742 1.52976 19.4094
849 2 1 7.49906 1.50827 20.3617
850 2 1 7.71291 1.56812 21.3102
851 2 1 7.96041 1.65578 22.2677
852 2 1 8.19279 1.51642 23.1929
853 2 -1 7.67839 2.32915 23.1242
854 2 -1 7.57791 1.93387 23.9993
855 2 -1 7.52468 2.02922 24.9434
856 2 -1 7.37807 2.07736 25.9094
857 2 -1 7.39477 2.27516 26.8671
858 2 -1 7.41085 1.8351 27.7233
859 2 -1 7.27568 1.64349 28.6582
860 2 -1 7.10615 1.5193 29.6015
861 2 -1 7.12761 1.95478 30.4697
862 2 -1 7.00725 1.75391 31.4177
863 2 -1 6.78614 1.96087 32.3421
864 2 -1 7.00389 1.50247 33.161
865 2 1 12.9622 2.3298 13.5868
866 2 1 13.1282 1.98681 14.4691
867 2 1 13.24 1.95325 15.4263
868 2 1 12.9701 2.13225 16.3405
869 2 1 12.609 2.06007 17.2417
870 2 1 12.8197 1.71927 18.1254
871 2 1 12.9616 1.7274 19.0841
872 2 1 12.9989 1.59131 20.0432
873 2 1 12.7859 1.75734 20.9911
874 2 1 12.8397 1.82039 21.9796
875 2 1 12.9456 1.71795 22.9462
876 2 1 12.3024 2.05492 23.5878
877 2 -1 12.6219 2.78526 23.0462
878 2 -1 13.2829 2.45311 23.6555
879 2 -1 12.9767 2.45419 24.5617
880 2 -1 12.8369 2.24879 25.4921
881 2 -1 12.7344 2.10984 26.4305
882 2 -1 12.6465 2.01577 27.3872
883 2 -1 12.4678 1.83488 28.3233
884 2 -1 12.5741 1.73921 29.2856
885 2 -1 12.5048 2.32228 30.0621
886 2 -1 12.5586 2.42358 31.023
887 2 -1 12.5309 2.50289 31.9837
888 2 -1 12.4964 2.70029 32.9211
889 2 1 18.4112 2.35974 13.9986
890 2 1 18.6523 2.01253 14.8551
891 2 1 18.8194 1.85583 15.7945
892 2 1 18.3682 2.03673 16.641
893 2 1 18.0551 2.03175 17.5653
894 2 1 18.3821 1.8918 18.4645
895 2 1 18.4266 1.99929 19.4128
896 2 1 18.4664 2.07116 20.3829
897 2 1 18.436 2.0023 21.3405
898 2 1 18.4811 1.73909 22.2598
899 2 1 18.1794 1.48791 23.1316
900 2 1 18.6163 2.25281 23.4627
901 2 -1 17.9531 2.56439 22.8489
902 2 -1 17.4842 2.22558 23.5999
903 2 -1 17.8389 1.97211 24.4699
904 2 -1 18.1301 1.79116 25.379
905 2 -1 18.2191 1.87393 26.3387
906 2 -1 18.1432 1.69951 27.2989
907 2 -1 18.2075 1.25211 28.1535
908 2 -1 17.9467 1.41537 29.0685
909 2 -1 18.1996 1.20264 30.0009