LAMMPS data file via write_data, version 27 Jun 2024, timestep = 100000, units = lj

3264 atoms
2 atom types
3162 bonds
1 bond types

0 32 xlo xhi
0 32 ylo yhi
0 32 zlo zhi

Masses

1 1
2 1

Pair Coeffs # lj/cut

1 1 1
2 1 1

Bond Coeffs # fene

1 30 1.5 1 1

Atoms # molecular

310 10 1 1.4806062550005599 1.2389781345816482 0.3628836739097004 0 0 0
505 16 1 0.9018030901583797 2.314093539282248 0.8358320674537563 1 0 0
314 10 1 3.7511231407919055 0.5920510991727423 1.7285335587807016 0 0 0
313 10 1 3.235861169300171 0.07891564561194936 1.0163104965621317 0 0 0
1367 43 1 6.4500170178388645 1.9704837128100188 0.4147647751659284 0 1 0
1366 43 1 5.651317341818182 1.5775446197826766 0.1009629757893104 0 1 0
1368 43 1 7.176437801965327 2.1747296812457284 1.0278823947996798 0 1 0
1365 43 1 5.235409124987126 1.7874121593732766 31.21775549667467 0 1 -1
1369 43 1 7.5181220552311485 2.695894437143609 0.3668422350247498 0 1 0
1371 43 1 8.810254889626332 1.2643714332003626 0.6663744165377626 0 1 0
248 8 1 6.328224364936424 0.7109403338444947 2.9187019632091196 1 0 0
256 8 1 7.354405657577925 2.764281557605464 1.8212184870977208 1 0 0
289 10 1 0.8437155246647682 0.16789949688601125 31.549207175031032 0 0 -1
507 16 1 1.7976104697210626 2.6549298877245944 1.0994947864504716 1 0 0
506 16 1 0.9442580073449949 3.202376700763758 1.3579177479536235 1 0 0
305 10 1 2.3791103235209774 1.6580039249538963 0.791472113729072 0 0 0
241 8 1 4.8103310227915 2.017578602198464 2.5823916905730795 1 0 0
789 25 1 4.703232111208457 3.543094077197745 1.9604992653667477 0 0 0
788 25 1 5.373981795758915 2.8867164667512695 1.6540954540103405 0 0 0
785 25 1 7.590602502275443 4.023661553319131 1.6503890539201562 0 0 0
1375 43 1 9.812834737704932 1.3393364431580255 0.9553209903372991 0 1 0
1373 43 1 9.266263076305586 2.4603486281975924 0.7588266396382828 0 1 0
1374 43 1 10.164157762453241 2.1115303535336603 0.4095754557798979 0 1 0
1859 59 2 25.299774304160994 4.538449272158565 0.04466175978343149 0 0 1
206 7 1 31.87726403459603 5.463499257859734 31.617484199332416 0 0 -1
205 7 1 0.7688844884661196 5.583083800357918 31.29809640532906 1 0 -1
583 19 1 1.955272462257558 4.124092386025691 0.08057795954375574 0 0 0
582 19 1 1.691470034404385 4.6570937873259926 0.7555978758513471 0 0 0
1361 43 1 5.635902808676891 2.8152078833825094 0.23966736132926408 0 1 0
240 8 1 3.898757073550401 2.0226719835578515 2.456128326056695 1 0 0
1360 43 1 5.125138340835602 3.4301460954936864 0.8673631361172095 0 1 0
784 25 1 7.969040631036737 3.6336030580029135 2.4887472509272484 0 0 0
783 25 1 8.894130398715891 3.602932839152296 2.5321982991800502 0 0 0
782 25 1 9.557624825303785 4.199566112991699 1.9479160027092137 0 0 0
650 21 1 11.077148717215117 2.216776276050338 0.9993644605667535 0 0 0
649 21 1 11.49809522563886 2.9767400879016623 0.6744835943243078 0 0 0
652 21 1 10.310063586939313 2.1556470065087083 2.4996445089613326 0 0 0
643 21 1 12.222087752700173 4.7608880507138815 0.2862898988440753 0 0 0
644 21 1 11.623246956885202 4.686753100784719 1.0159838937414287 0 0 0
1864 59 2 22.473869317840617 4.921038341853039 31.79302746924355 0 0 0
1861 59 2 23.911705477980583 4.507636377793831 1.1782963555873451 0 0 1
1862 59 2 23.462123966981785 4.297581209595178 0.3267537012108325 0 0 1
1858 59 2 25.349422087653654 4.123487841379517 31.258661863581246 0 0 0
1860 59 2 24.456568936800196 4.857651869865679 0.44095505769126925 0 0 1
208 7 1 31.866586044726922 6.67403424343841 31.56723548461057 0 0 -1
204 7 1 1.530222079649761 4.873909825293987 31.582020867493608 1 0 -1
603 19 1 1.8950973045537545 6.189478828284436 0.4858086953768909 0 0 0
207 7 1 31.702587741479256 5.964226792722126 30.89867449842418 0 0 -1
605 19 1 2.6219328893505165 4.791026095054305 0.3086164666385226 0 0 0
604 19 1 2.447108294944298 5.484631254247979 1.0281686104482144 0 0 0
1801 57 2 2.9551783435324945 5.904096585645586 31.651592063732423 1 0 0
607 19 1 4.5172052535817215 5.0604073752681415 0.23969700952854672 0 0 0
1359 43 1 5.6290479772286615 4.061900410402317 1.3401510895410045 0 1 0
1358 43 1 5.6045170111589675 4.301623634677017 2.3117657135433825 0 1 0
1357 43 1 6.160639646720096 5.097544133046051 2.2819648376617634 0 1 0
1356 43 1 6.645035787944055 4.3114660430857175 2.1230436232266974 0 1 0
1355 43 1 7.379316874288878 4.925498935857916 2.1944017628541292 0 1 0
1352 43 1 7.962711368371713 6.181396495131415 0.47422214948569186 0 1 0
651 21 1 10.957482929512198 1.8406537127127625 1.8439742840758366 0 0 0
1347 43 1 9.66688047639907 6.403800687219292 1.8314487530315717 0 1 0
646 21 1 10.539959630045898 4.958824713272852 31.680536786682794 0 0 -1
642 21 1 12.217096415422423 5.670978242804274 0.5368066640688548 0 0 0
641 21 1 13.179247149538144 5.700098375407614 0.523437590534593 0 0 0
645 21 1 11.186269450382133 5.213264188721437 0.2393867353077946 0 0 0
1863 59 2 22.53830207554429 4.052437586541131 0.1465022907158854 0 0 1
1873 59 2 26.808217248738867 5.0068887754623335 30.284846514094344 0 0 0
1872 59 2 26.509048502731723 5.512998032942509 31.035501858454094 0 0 0
1871 59 2 25.68433927201273 5.720821900832838 31.563779567605643 0 0 0
213 7 1 29.61348200405609 5.424331082103866 31.42199646566948 0 0 -1
602 19 1 1.015324465066645 6.013494318478524 0.8815343593718611 0 0 0
590 19 1 2.276599964892213 5.735352847728915 30.100589373570834 0 0 -1
1800 57 2 2.7706101650208295 6.574440132680508 31.073753549954777 1 0 0
1799 57 2 3.2637820115999614 6.68421896941256 30.327267691658406 1 0 0
1806 57 2 5.5059363064015985 5.409926877816764 1.414518450961085 1 0 1
1808 57 2 6.371430736733548 5.300761180861306 0.21334895841569732 1 0 1
1807 57 2 6.235290037902082 5.860560671180103 0.9288475131731008 1 0 1
608 19 1 3.8833947780201825 5.7848497980046805 31.925605415087713 0 0 -1
1354 43 1 7.182550654613763 5.434090234118086 1.3954034663943917 0 1 0
1353 43 1 7.549072578236581 5.379722656194599 0.5058721361424168 0 1 0
372 12 1 6.484579231847277 8.1294925242091 2.2602859048749826 0 0 0
1351 43 1 8.667527538118273 6.739402220084583 0.8316049349571667 0 1 0
1350 43 1 9.452127410703085 7.18977639056208 0.712506591595628 0 1 0
375 12 1 7.7391951568433655 6.3745277870002655 1.5620254859378067 0 0 0
1349 43 1 9.908811727590198 7.849443579499332 1.1658379459083248 0 1 0
1348 43 1 9.694528083546887 7.314539184311452 1.901938154030846 0 1 0
1345 43 1 9.913232038336313 6.3419826777145305 0.5426279550122457 0 1 0
1346 43 1 10.206854127600062 5.675850387896115 1.3240278646554415 0 1 0
683 22 1 14.382859477212104 8.101086105856552 31.06027396192456 0 0 -1
1870 59 2 24.740968676497967 5.789703916981105 31.936965668052945 0 0 0
2429 76 2 25.943490247684963 6.898608417627489 0.43350450273102703 -1 0 1
2430 76 2 25.77300548964472 7.74337430790216 0.6995071052057809 -1 0 1
2428 76 2 26.802749760831954 6.799097861634016 0.19442533551497732 -1 0 1
214 7 1 29.582432334442167 4.461908142699878 31.392348795185242 0 0 -1
2426 76 2 28.214214457352792 5.945107168582728 31.754582924908135 -1 0 0
601 19 1 0.3784243891284818 6.112777462642859 1.6298982802284139 0 0 0
600 19 1 0.5460704916934053 7.1069882498963866 1.333544563015055 0 0 0
19 1 1 1.6164362587676904 9.697238535079126 1.1455350989925204 0 0 0
592 19 1 1.5499356657609047 6.338636189196526 30.517407518556116 0 0 -1
591 19 1 2.007813997843387 5.707196012077071 31.165341737718094 0 0 -1
20 1 1 1.0175871897049804 10.180056221697317 0.6901393657012626 0 0 0
21 1 1 0.21793683511199802 9.859840772199886 0.1972976217859087 0 0 0
2110 66 2 2.4167651471459872 8.743346491867408 2.530599325767127 1 0 1
1796 57 2 2.647331091403369 8.320362346792281 31.24568887523555 1 0 0
1795 57 2 3.229163925247798 8.666992960093838 31.91589342200761 1 0 0
1794 57 2 3.0782013551029226 8.023255078881677 0.6213768002395277 1 0 1
1705 54 2 5.124411361272632 6.592487642483257 0.5197054687363272 0 0 1
1706 54 2 5.787798985506924 7.156160977478462 0.8368463715061187 0 0 1
1707 54 2 6.182560577605952 7.72998750313957 1.402771867785545 0 0 1
371 12 1 6.818117852619589 8.720137444890506 1.5249743991562195 0 0 0
384 12 1 6.6619031841896446 6.86308861040638 31.449207806916462 0 0 -1
378 12 1 7.602069887891545 8.00586492479575 2.0494292318910943 0 0 0
373 12 1 6.746505913562057 7.239930276513441 2.7022705929334725 0 0 0
376 12 1 8.518967604712014 6.669996003089051 1.799520644770607 0 0 0
379 12 1 7.6537384130177175 7.841348229561653 1.1433078512143444 0 0 0
673 22 1 8.29290311962284 6.2232230016666295 31.097706952024186 0 0 -1
2531 80 2 10.838618583485687 6.587184821781226 0.5905962744576145 0 0 1
2530 80 2 10.599835220699651 6.95220954144119 1.4081255109902524 0 0 1
2529 80 2 11.515398698121716 6.6269740583588606 1.5652892674732553 0 0 1
684 22 1 13.60926803391732 7.760141493065747 30.57732110538339 0 0 -1
685 22 1 13.967306559742473 8.210881925476833 29.86929334973028 0 0 -1
909 29 1 19.07060734858657 9.528085244569342 1.8527324725636307 0 0 0
1731 55 2 22.72310361121309 7.685951893735328 31.199967812745815 0 -1 0
2628 83 2 23.544811356242548 11.26248511202231 31.36171483681816 0 0 0
2629 83 2 24.295959685550248 10.676289570212637 31.60215923785759 0 0 0
2432 76 2 24.741130646694465 8.16709359552225 0.05781942792404427 -1 0 1
2431 76 2 25.57768224885995 8.55543450319966 0.27850804651770217 -1 0 1
2414 76 2 26.873416192192863 7.843868364894924 0.05359482332162268 -1 0 1
2415 76 2 27.195735895651552 8.70044677044112 0.5695302139170597 -1 0 1
2416 76 2 27.695207697009366 8.718329725632048 31.71510349570717 -1 0 0
2427 76 2 27.7849310487077 6.768149564203375 31.90225375135186 -1 0 0
597 19 1 0.3054061791914521 8.369703688326418 31.57664220744651 0 0 -1
595 19 1 1.0022766263808756 8.05334328217929 30.761381338116927 0 0 -1
2112 66 2 2.589608135171466 10.444146518327871 2.383640482023902 1 0 1
2111 66 2 2.492491161469534 9.614242331303055 1.9865700552963685 1 0 1
341 11 1 3.8057084273135726 9.39945563821306 0.8784721500433516 0 0 0
340 11 1 4.553145896987855 9.755968983672686 0.33538114067264524 0 0 0
338 11 1 4.628673508811282 10.499734402751743 2.0248642756601547 0 0 0
1708 54 2 6.351826185276732 7.841898110604801 0.438671065574391 0 0 1
1709 54 2 6.993976917362511 8.616550198306665 0.29599598856350284 0 0 1
381 12 1 7.213883681416746 7.289442188887582 0.3842113380008083 0 0 0
368 12 1 8.446658698364358 9.953613499032583 2.6397968058599646 0 0 0
364 12 1 9.270553508911751 8.753961563008133 1.2086476672154203 0 0 0
363 12 1 9.041740976885961 8.991497890403641 0.3129511851118306 0 0 0
361 12 1 8.8450286714828 9.872684008435462 31.838119310964498 0 0 -1
362 12 1 9.640314743059237 9.18759837797807 31.58006029425754 0 0 -1
360 12 1 9.584992079335635 10.386377753383151 31.371350135497178 0 0 -1
140 5 1 12.1040927440183 9.933219092649896 1.5344776070678334 0 0 0
2541 80 2 13.416054318407424 9.415076555549456 0.47732925583639757 0 0 1
2538 80 2 12.471741322435737 8.714130372004208 31.538683341085715 0 0 0
2539 80 2 13.374889383000786 8.890241376260764 31.39796664284323 0 0 0
131 5 1 14.58910493367595 7.9096673510346625 0.5204432114123556 0 0 0
130 5 1 15.471878384606557 8.355475179812375 0.9340526268554724 0 0 0
907 29 1 18.259472722498618 10.05950817930519 2.298313110897372 0 0 0
908 29 1 18.899570252028656 9.75361921593498 2.8592901022223587 0 0 0
913 29 1 21.416617521653063 10.33731170105101 1.0852369296831312 0 0 0
1745 55 2 22.801111188190518 8.902619725076192 0.015469893195968174 0 -1 1
1744 55 2 22.50467124021073 8.63157146356946 31.14799425944013 0 -1 0
1743 55 2 21.771315441282436 9.08473666384095 30.787005805622226 0 -1 0
2631 83 2 25.714789860845414 9.539094086199125 0.25653518063538977 0 0 1
2640 83 2 27.171086101204928 8.848028517701524 30.024008336119667 0 0 0
2639 83 2 26.908984968409897 8.597422001843197 30.931219603587728 0 0 0
596 19 1 1.2602883794906896 8.693142570029137 31.402097031145935 0 0 -1
339 11 1 5.003119978948942 9.777997112492413 1.2262125409950637 0 0 0
533 17 1 6.12926713243729 10.850405451983978 0.12803789280100414 0 0 1
534 17 1 6.109898612742158 11.737868011244274 0.037937051343285254 0 0 1
547 18 1 5.96481279351657 10.885324636270907 3.4858647974529706 0 0 0
1715 54 2 7.592064401431219 10.111399417841914 1.0171896477402451 0 0 1
1717 54 2 8.192077612344862 10.650364102613851 1.605623451376632 0 0 1
1714 54 2 7.083568643171816 10.097929731603083 0.20684113319519248 0 0 1
889 28 1 9.89870590384841 11.34382791275832 0.39637717695231967 0 0 0
890 28 1 10.072534067643454 12.109996971586497 1.065951030550283 0 0 0
1718 54 2 7.790875172169828 11.017423552295567 2.3553222869096544 0 0 1
894 28 1 10.381638451191176 13.411005080638727 1.763960634153179 0 0 0
355 12 1 11.640322222410916 11.236191467289295 0.49491795608499767 0 0 0
354 12 1 11.579276884752671 10.670163187188033 31.724607184071612 0 0 -1
2540 80 2 13.12142167965866 9.70933047701232 31.620991462030066 0 0 0
2256 71 2 13.10151174498159 11.939637664719568 31.835563657430722 0 0 0
2258 71 2 14.698666030009528 11.349642898114334 0.5138031528231232 0 0 1
2260 71 2 14.838070001236769 11.207993138614462 2.090249244139094 0 0 1
2257 71 2 13.798405767132518 11.706170810839772 0.42313987929728203 0 0 1
2265 71 2 16.80483727528375 11.490195149521831 2.016615178634943 0 0 1
906 29 1 17.795948717938558 10.783022881049328 2.754248126448769 0 0 0
2984 94 2 18.27994808708913 11.310589529598131 30.508198327902118 0 0 0
2988 94 2 16.70568565285828 11.658364387577032 30.90640930810248 0 0 0
2986 94 2 17.349173962898316 11.616395921871858 29.915398256162433 0 0 0
2985 94 2 18.33909052643797 11.435943036602186 29.581601117548956 0 0 0
915 29 1 22.224789529658846 9.695816024559855 1.9780036938498722 0 0 0
916 29 1 21.352851180724592 10.224459616220443 2.072086705229318 0 0 0
1309 41 1 21.70440305834424 10.847328561000209 0.211982579738836 -1 0 0
2632 83 2 26.022156151897388 9.7773832798517 1.0982744143194367 0 0 1
1760 55 2 26.950943339706757 9.161995514441898 1.4291670549229347 0 -1 1
2633 83 2 25.451109456024003 10.407207527551764 0.7022224932547543 0 0 1
2215 70 2 5.019393179035248 13.896470019030863 30.795322388745642 0 0 0
548 18 1 6.888548160848413 11.280199475747468 3.3445147447617534 0 0 0
2439 77 2 7.710940747769172 12.781050110048206 2.14873123176349 0 0 1
2445 77 2 8.357749876693434 11.635167432627531 1.5134280902551847 0 0 1
2444 77 2 9.124274797555717 11.433171151965382 2.0261959915064844 0 0 1
892 28 1 11.056194260363556 13.654021087606436 0.3784143292078835 0 0 0
893 28 1 11.38331277062398 13.421247095890152 1.264408550252138 0 0 0
356 12 1 11.024587958008901 12.01734682879362 0.22094802634944588 0 0 0
2259 71 2 14.955734510018319 10.767628892204101 1.2649036920941386 0 0 1
2547 80 2 12.082427725467115 12.125742733929947 31.57133568706848 0 0 0
2261 71 2 15.180905507369136 12.128422688762631 2.234120707209872 0 0 1
2262 71 2 15.835406185199348 11.722628464812049 1.707444388636151 0 0 1
2001 63 2 13.812545471216264 13.328018128213007 31.769169570548996 0 0 0
2989 94 2 16.422948531513278 11.635223256640861 31.91994630107011 0 0 0
2264 71 2 17.0079309941794 11.90475277611908 1.123811453253466 0 0 1
467 15 1 16.962182120896696 13.657577717539661 31.949411720546397 0 0 -1
468 15 1 17.485068491974936 13.294997178355485 0.8072251765273314 0 0 0
2987 94 2 16.73040366888271 12.368317534674725 30.299928036127078 0 0 0
1305 41 1 19.4074231799367 11.914423346294612 1.0126292677238038 -1 0 0
1304 41 1 19.43639518070388 12.239936898348834 1.9179450205802773 -1 0 0
181 6 1 21.72304949304041 11.95279745470411 1.1231915618657622 0 0 0
183 6 1 22.237785991809066 10.829776060671058 2.4613816201365353 0 0 0
182 6 1 22.04488934607546 11.715132715135315 1.971693782621036 0 0 0
2113 67 2 31.339172134596485 11.639563136770825 31.72434570732852 0 0 0
2213 70 2 4.610495233432005 14.456535299433394 0.2092635101762525 0 0 1
1727 54 2 6.21523365077481 15.839345839820515 1.4938202317597347 0 0 1
2440 77 2 7.0395157508923 12.19755341404174 2.799137852912357 0 0 1
2442 77 2 8.583485635500734 12.562164248506456 2.671533021172833 0 0 1
2441 77 2 7.877415142325483 12.247303428071351 3.199628086635486 0 0 1
2443 77 2 8.531760109626855 11.615716730097686 2.76065468991085 0 0 1
1999 63 2 14.204573773917351 15.123078065176099 31.70899306311495 0 0 0
2000 63 2 14.087911643682347 14.154112112017883 31.39946939118545 0 0 0
2999 94 2 15.178748088627046 13.920121112634515 2.284089182970132 0 0 1
2998 94 2 15.803766569562852 13.798156329183985 1.618291834481208 0 0 1
476 15 1 16.38515137205211 15.467046916991508 1.1137719659817276 0 0 0
2996 94 2 15.404679115895712 13.863353158141623 0.6694645532742618 0 0 1
1249 40 1 18.80217818538666 13.580846635489515 0.30464249175896035 0 0 0
1250 40 1 18.62286556659468 14.487989962472952 0.309986306821532 0 0 0
179 6 1 21.014813338466087 12.807480679941794 0.6081227683737958 0 0 0
180 6 1 20.81642837628605 12.155868681012691 1.2851672655236865 0 0 0
981 31 1 23.448114043352128 11.641057111971438 0.3859576733196741 0 0 0
983 31 1 23.90571195346669 12.58030676249447 0.09730171237687261 0 0 0
984 31 1 23.297200482225875 12.426431323268814 31.26659745731707 0 0 -1
450 15 1 22.082570314358367 12.912752779735651 0.9059846155061695 0 0 0
991 31 1 22.706125825364055 15.798734045280982 0.6499916157842466 0 0 0
2212 70 2 3.8992538952485196 14.522819910903783 0.8531571852863415 0 0 1
1726 54 2 6.743113438211457 15.042869800711097 1.1410921949526245 0 0 1
1725 54 2 6.949678668110719 14.260606850684644 1.7677183532734067 0 0 1
2684 84 2 8.406674855587141 15.016132873545166 0.9629936555245777 0 0 1
2685 84 2 8.917684121506428 15.587660614663985 1.5464533722578242 0 0 1
719 23 1 9.175060900872664 14.540937919682271 0.5682297967915054 0 0 0
726 23 1 9.579418252455566 16.13882837896167 2.161261099234343 0 0 0
720 23 1 9.919901078661043 15.26903052271273 0.4292931492010401 0 0 0
721 23 1 9.992258054248735 15.341877582333078 1.4044058512730428 0 0 0
725 23 1 9.060902728359473 16.907435177402036 2.1886285133239918 0 0 0
3058 96 2 10.718192866058269 14.381644789954143 31.593298119235033 0 0 0
3004 94 2 12.028683910285645 14.400829436813638 0.7815340584324153 0 0 1
3003 94 2 12.807004325620923 14.184896964645656 1.2453889032666894 0 0 1
1996 63 2 13.051117896152624 16.00555220390111 31.244209802629793 0 0 0
3000 94 2 14.563783244330711 14.056476659236546 1.530076204425473 0 0 1
3001 94 2 13.941909741255593 14.563422332368946 0.8556918978476634 0 0 1
3002 94 2 13.15929307116897 14.112349943211282 0.42854783325337564 0 0 1
2997 94 2 16.296353270012148 13.384948029318576 0.7530098286712904 0 0 1
1251 40 1 19.040009456287105 14.70620520523885 1.2221565824497045 0 0 0
1252 40 1 18.19203860301612 15.08197486166121 1.4254607779718558 0 0 0
1253 40 1 17.274845116162577 15.455879349950811 1.5458211157255999 0 0 0
456 15 1 20.548709481687816 14.469084184419415 0.545151792867666 0 0 0
980 31 1 22.58626565360346 11.804694033253531 31.76193796847303 0 0 -1
453 15 1 21.470533304921233 15.157956993196029 1.3343108694895511 0 0 0
451 15 1 21.926847905165555 13.871485790374164 0.6930894483671532 0 0 0
1032 33 1 21.202125218896416 16.87425755803674 0.6595295144098304 -1 0 0
449 15 1 22.670541186970347 12.813786945554938 1.6168537138795587 0 0 0
724 23 1 9.747454553942232 17.527826619708115 2.2335551589111713 0 0 0
723 23 1 10.111830853557674 16.862494485720905 1.7165871145209772 0 0 0
730 23 1 11.312761057914448 17.36814675804726 1.6818094374865495 0 0 0
1986 63 2 11.448688209373712 15.214624101172207 2.106532311632534 0 0 1
1985 63 2 11.650418271028139 14.359186036920889 1.7479394926341751 0 0 1
1990 63 2 12.866340755763717 17.155375906761613 2.326576505917596 0 0 1
1992 63 2 12.939355414444128 17.603971649052053 1.3409223144744942 0 0 1
2692 85 2 14.024672832337773 18.492217013473777 2.973574842230597 0 0 1
3006 94 2 11.450137521828234 16.063707403719423 0.6015267744469446 0 0 1
3007 94 2 12.262781900518894 16.50862752531896 0.4917569637890509 0 0 1
1412 45 1 14.967170403973734 16.567704403385452 2.571387403648263 0 0 0
1995 63 2 12.732657828091183 16.94369465525616 31.582119420833536 0 0 0
1419 45 1 14.908762891892048 16.315217963727168 31.663605693814713 0 0 -1
1414 45 1 15.592648115649633 17.524166179386366 2.0970119071881674 0 0 0
1056 33 1 17.66355444734758 17.69961121295694 31.83914141892802 -1 0 -1
1055 33 1 17.701878388206016 17.06250990881002 0.5803475791409274 -1 0 0
1051 33 1 18.802087340752433 18.596275138298505 0.5380111155180703 -1 0 0
1296 41 1 19.646878617537954 16.080706224589353 1.3151805437198056 -1 0 0
1054 33 1 18.56699742992031 17.47948481211151 0.4069719195104313 -1 0 0
1295 41 1 19.9842812844646 16.93188361752843 1.2736853398816659 -1 0 0
1026 33 1 21.35665763783802 16.7506392354116 31.71212530887818 -1 0 -1
1025 33 1 20.81493662308919 17.000535105108067 30.99624622285017 -1 0 -1
3163 99 2 19.706935431851313 16.93427320130121 2.673451753186982 0 0 1
3164 99 2 20.578333293172513 16.64282906057889 2.3307636175450024 0 0 1
3167 99 2 22.200612367489757 17.17993010859466 2.746853907356144 0 0 1
3168 99 2 22.702239423386946 17.01800293640596 3.5140732110523385 0 0 1
454 15 1 20.592036172618066 15.510928913671995 1.526085790555629 0 0 0
1035 33 1 22.840039922285335 16.550640721932968 1.7660044319296258 -1 0 0
733 23 1 10.084055478750434 18.30768803392498 0.4330920531834503 0 0 0
734 23 1 10.87303152720303 18.75508278605131 0.48524153963657796 0 0 0
1991 63 2 12.7474019822265 18.138972776565357 2.0263851743901817 0 0 1
2693 85 2 14.563144080101358 19.131305505488655 2.533347458244893 0 0 1
2694 85 2 14.979823801743223 18.26385174691839 2.451973441746513 0 0 1
2695 85 2 15.35688126269174 18.503701139632888 1.540186104624537 0 0 1
1418 45 1 15.365860445424959 17.113921856254994 0.20781179042762377 0 0 0
2696 85 2 16.314042365457496 18.110227025360388 1.4420831617525438 0 0 1
1417 45 1 15.624991034636329 18.067958375186816 0.08805820245044577 0 0 0
1416 45 1 14.643768919848902 18.099948517927068 0.5456611465837662 0 0 0
1052 33 1 19.251925728088437 17.91748900643163 1.0957024688682184 -1 0 0
1053 33 1 19.498691370433416 17.46655907630432 0.3529036498699936 -1 0 0
1050 33 1 19.36653886081769 19.313130263602883 0.39253119651193763 -1 0 0
1522 48 1 21.329982669289002 18.190170773595046 31.921705710440207 0 0 -1
1523 48 1 21.90160827457817 18.028685158656756 31.110256028363704 0 0 -1
1521 48 1 21.00721301187825 17.921262447689035 0.7666912612077709 0 0 0
1520 48 1 21.81180225664825 18.01723013995994 1.2884204141494195 0 0 0
1038 33 1 24.145514044507827 17.158377522015105 31.654953411048638 -1 0 -1
1036 33 1 23.33020673004328 16.886511368656112 1.0688367111538521 -1 0 0
736 23 1 9.715401669499585 20.102880423492575 31.81121505520151 0 0 -1
3044 96 2 12.796088671275506 19.135219770862484 1.5048606029449292 0 0 1
3045 96 2 12.12707049211925 18.534283835905345 1.053995143327574 0 0 1
2697 85 2 17.060421011889336 18.638088984706968 1.215525047432513 0 0 1
2706 85 2 14.749021551416769 19.804490023091315 1.6199068597100963 0 0 1
1512 48 1 18.724425219900837 20.180849271339838 31.81103199857242 0 0 -1
2703 85 2 15.089552130793205 22.10554068609324 1.0349306390502702 0 0 1
2704 85 2 14.689027749119889 21.694970728788956 1.774879070900766 0 0 1
1513 48 1 18.661053422806344 20.01411790727249 0.724954435826927 0 0 0
1047 33 1 19.41668874832807 17.72780030124076 30.91238323370294 -1 0 -1
1514 48 1 18.829812904902038 19.817486011072596 1.6588748369847062 0 0 0
1511 48 1 18.51967674002124 19.89366558708536 30.896193335349107 0 0 -1
1517 48 1 20.43837245904909 18.510539721938915 2.504158158732031 0 0 0
1046 33 1 19.68350323584982 18.33256706490365 30.24308087606942 -1 0 -1
1040 33 1 23.265857235531456 18.590574240172504 31.76925997568841 -1 0 -1
1039 33 1 24.19439080274721 18.17819693113432 31.658055359534472 -1 0 -1
2708 85 2 14.010372872130377 19.851779910169604 0.8367197091283182 0 0 1
2705 85 2 15.018273524885563 20.743831518715666 1.5724149534677865 0 0 1
2707 85 2 14.323833009440962 19.023254777400616 1.3038559292548322 0 0 1
1515 48 1 19.549684824047734 19.23153284286825 1.6172657860018333 0 0 0
2892 91 2 19.696051615586125 22.71498916769016 31.674384401727494 0 0 -1
1041 33 1 22.92323968542954 19.296021602111203 0.29822626502380817 -1 0 0
1042 33 1 22.181072519100407 19.10284298753852 31.652270990724933 -1 0 -1
3087 97 2 15.135605683879207 22.983697285371395 0.18351990322764278 0 0 1
3086 97 2 15.650711814379349 22.291350284538243 31.995109513549227 0 0 0
3085 97 2 16.527985206023583 22.003894075110026 0.19803797109864477 0 0 1
3083 97 2 17.108696612686447 22.81180678499441 0.33763193714124595 0 0 1
3082 97 2 17.890979479896405 22.441443260797673 0.6274030066124464 0 0 1
2896 91 2 19.091737667493724 22.516824771186748 0.39519039431777775 0 0 0
3084 97 2 16.65747542685643 22.401802802046948 1.1424965151377846 0 0 1
2894 91 2 18.37872714145895 23.180300874876803 31.18355210556384 0 0 -1
3081 97 2 18.512685213242904 21.76484338555185 0.9471564676639206 0 0 1
2897 91 2 19.53042889289554 22.139278678570534 1.116629618494021 0 0 0
3078 97 2 17.182612638965683 22.57294466494856 2.055952734299253 0 0 1
2885 91 2 18.438481496451306 24.506456321581165 0.7183274704459648 0 0 0
1084 34 1 1.7634856575145794 29.070215589277264 3.0136262229481434 0 0 0
1083 34 1 2.122542080398577 28.32249314682321 2.597267498837235 0 0 0
320 10 1 4.5545787771547666 31.532234984284116 1.5255627331046193 0 -1 0
1072 34 1 7.962664804617796 31.323934506398047 1.3802104983513985 0 0 0
1074 34 1 6.932340678005448 31.003427499057654 1.8488337268195352 0 0 0
1073 34 1 7.170944399026426 31.885601102237896 1.5755731009661724 0 0 0
1071 34 1 8.039060484663342 30.336351770432955 1.1699688611168866 0 0 0
1070 34 1 7.637047271108453 29.77506599359193 1.8676215467393547 0 0 0
1622 51 1 9.934081331199211 31.74195156007678 0.3644982854068456 0 0 0
1621 51 1 9.373212798418482 0.29205421896516987 0.8442910295535939 0 1 0
1619 51 1 10.760780447768 0.7189888501020948 1.8003984181386303 0 1 0
1618 51 1 11.460311841526899 0.18213221398217613 2.2752027693339416 0 1 0
1620 51 1 10.118241360065047 0.15401933695852804 1.4050328923731956 0 1 0
312 10 1 2.4662971990242353 0.16031518567095865 0.3886447004943541 0 0 0
311 10 1 2.0309103463338927 0.7789525592720202 0.9822427020243051 0 0 0
316 10 1 4.56186130771258 1.603666675187261 0.29257554044290845 0 0 0
315 10 1 4.131767377192617 1.095669579042446 1.0601443233398151 0 0 0
317 10 1 5.17576510892204 0.7068411656150912 0.32999594454625664 0 0 0
318 10 1 5.5013194389553215 0.5579334581480679 1.25876754075935 0 0 0
319 10 1 5.276341885313669 31.89954429664732 1.8965474767066284 0 -1 0
252 8 1 7.633363286021355 0.5455210922642951 0.8809901606944192 1 0 0
250 8 1 6.722469131318471 0.9244694080628341 1.0825355986595564 1 0 0
251 8 1 7.281724839489196 1.325253624153902 0.4149014954933837 1 0 0
249 8 1 6.535404222502966 0.5898199577273856 1.9940395274644251 1 0 0
1068 34 1 6.6378573365670315 30.016750810226235 2.7858542661587866 0 0 0
255 8 1 7.745996326764489 1.9206073647222734 2.0765094898929273 1 0 0
1623 51 1 10.218182230905098 30.91501361728601 0.6259879415392925 0 0 0
1628 51 1 8.845135240072434 31.384996753538594 0.6628247894448821 0 0 0
503 16 1 1.9063982654590925 2.025353528240098 1.9537358970146328 1 0 0
504 16 1 1.0293524903665263 1.6069774027258075 1.6112321141682864 1 0 0
502 16 1 2.50189575701896 1.4098792599712908 2.3433592223119843 1 0 0
501 16 1 2.7123700681499265 0.5427198386410501 1.9268409594420068 1 0 0
500 16 1 2.3373413928978417 31.657651420659477 1.9600309738066704 1 -1 0
243 8 1 6.625353042006587 1.8567215177182805 2.126544216715484 1 0 0
247 8 1 5.37155643544121 0.46106161102788074 2.9676245613280545 1 0 0
671 21 1 7.747617798580615 1.3726070259484355 3.699934354096257 0 0 0
670 21 1 8.515933413582676 1.4942452059944762 3.0398560830744477 0 0 0
669 21 1 8.750706206066733 1.3156161495055576 4.06314791687301 0 0 0
668 21 1 8.54488643994088 0.4430937333706758 4.277900461003862 0 0 0
508 16 1 2.7654286350316157 2.6915371383219133 1.361215334570961 1 0 0
221 7 1 31.932687306222533 2.147287107684244 2.0401793033745905 0 0 0
509 16 1 2.4519432102384804 3.3548628375969285 2.0217694259594405 1 0 0
242 8 1 5.715877909256635 1.758559387975043 2.380146503208466 1 0 0
238 8 1 3.1800671933879574 2.791948849394306 2.621546816232232 1 0 0
787 25 1 6.290501509322812 3.042449276885883 1.2240592008141784 0 0 0
793 25 1 7.010516291793037 3.5644788410004162 2.608654140587672 0 0 0
786 25 1 7.002772668582532 3.7598930235179857 1.008425042486756 0 0 0
1376 43 1 9.63615584175856 1.916221829642729 1.7140902968133271 0 1 0
667 21 1 9.11814514078765 31.9697185255512 4.959884318620349 0 -1 0
666 21 1 9.769976001295749 31.278964393905834 4.620900173436428 0 -1 0
664 21 1 9.788853011662638 0.7956320825489592 5.356194871410076 0 0 0
658 21 1 11.389018407249536 2.0463562304784144 3.4187537173354503 0 0 0
665 21 1 10.107975265532092 0.1428019383450313 4.710939102184183 0 0 0
220 7 1 31.806767259621644 1.6211206761321189 1.1249957836542785 0 0 0
7 1 1 31.90854284815147 3.7718747825429575 2.801617186874652 -1 0 0
581 19 1 1.617362046043496 4.076441870318853 1.491563560549596 0 0 0
239 8 1 3.6957421784947244 2.5945262121794594 1.8004891980654254 1 0 0
237 8 1 3.442516401554852 3.7097175640854925 2.2749755637889475 1 0 0
579 19 1 3.299641066724389 3.9088752117228664 0.9367898074161216 0 0 0
580 19 1 2.4004625703026825 3.9677886381504788 1.015329507884605 0 0 0
790 25 1 5.099627739872976 3.56250122133815 2.8653564941873677 0 0 0
792 25 1 6.717042164778121 4.262880898910044 3.3619966790801366 0 0 0
791 25 1 5.931779207594683 3.670312078470085 3.413574170477258 0 0 0
777 25 1 7.793327045235475 4.349150152752462 4.29818854918616 0 0 0
781 25 1 9.641507016277744 5.072399905766581 2.4533697187209804 0 0 0
656 21 1 10.320158963872155 0.7599267861383749 3.114885269841539 0 0 0
657 21 1 11.13484230890655 1.2078304449175454 2.8019137257936433 0 0 0
1857 59 2 25.63669208820654 3.2590404052081015 31.282987954178648 0 0 0
219 7 1 31.4625560144666 2.5328126488824823 0.9018254103635099 0 0 0