ITEM: TIMESTEP
0
ITEM: NUMBER OF ATOMS
3264
ITEM: BOX BOUNDS pp pp pp
0.0000000000000000e+00 3.2000000000000000e+01
0.0000000000000000e+00 3.2000000000000000e+01
0.0000000000000000e+00 3.2000000000000000e+01
ITEM: ATOMS id type x y z
1 1 28.5192 11.6517 2.39424
2 1 29.0961 11.0685 2.85428
3 1 29.7918 11.5331 2.29551
4 1 29.1402 11.4775 1.50093
5 1 29.446 10.6149 1.82541
6 1 29.0291 10.0061 2.575
7 1 28.5559 9.50605 3.36383
8 1 29.2054 8.81673 3.87328
9 1 29.6952 8.52651 3.05357
10 1 30.5612 9.03801 2.799
11 1 30.7716 9.88959 3.45442
12 1 30.7107 10.2254 4.26725
13 1 29.9115 10.5838 4.58661
14 1 30.4794 11.2833 4.9926
15 1 30.0525 10.6763 5.76544
16 1 30.285 11.6273 5.86199
17 1 28.3066 13.7331 10.5835
18 1 28.8263 14.432 10.8378
19 1 29.7908 14.7483 10.6308
20 1 30.0347 14.6717 9.69065
21 1 29.454 14.0513 10.0556
22 1 29.8851 13.4632 10.6769
23 1 29.1894 13.077 10.1853
24 1 30.1038 12.8646 9.86155
25 1 30.146 11.9982 9.60212
26 1 30.7216 11.3323 9.33527
27 1 31.3169 11.1723 8.49481
28 1 0.113363 10.6602 8.21799
29 1 0.699045 10.0771 8.72671
30 1 1.43523 10.2259 9.36096
31 1 2.13502 9.49835 9.26577
32 1 2.39838 8.95423 10.0743
33 1 3.50035 18.3926 4.16079
34 1 4.45565 18.4109 4.10546
35 1 4.08002 18.824 4.92734
36 1 4.15749 19.0467 5.83133
37 1 4.8201 19.5885 6.57883
38 1 4.8201 20.286 7.20458
39 1 4.05848 20.5136 6.5962
40 1 4.36733 21.2032 6.02607
41 1 4.08141 21.8814 5.33598
42 1 3.32511 22.0682 4.78771
43 1 3.05388 21.4465 4.15988
44 1 3.25978 20.8871 3.39724
45 1 3.88482 21.1375 4.17078
46 1 4.83257 21.5214 4.27027
47 1 5.73605 21.8197 4.16081
48 1 5.0448 22.466 4.28514
49 1 9.92037 5.86929 28.4122
50 1 9.40353 6.37806 29.042
51 1 9.95818 7.00951 28.6234
52 1 10.8959 6.99877 28.8867
53 1 10.8013 6.07431 29.1067
54 1 10.1861 5.77138 29.785
55 1 9.272 6.01761 30.0082
56 1 8.3902 5.39387 29.8838
57 1 8.33882 4.53347 30.3847
58 1 9.06336 3.9019 30.7971
59 1 8.79242 3.38125 29.9948
60 1 8.27609 2.8138 30.5361
61 1 8.81523 2.75485 31.343
62 1 8.95395 2.21264 30.375
63 1 8.31196 1.83329 29.7743
64 1 9.11651 1.75008 29.1402
65 1 5.5101 7.83772 4.27031
66 1 5.7231 8.35325 3.59921
67 1 5.64333 8.09132 2.67101
68 1 5.01992 8.06629 1.96629
69 1 5.0834 8.27908 1.08158
70 1 5.44833 8.48412 0.159948
71 1 4.84415 9.18469 0.386722
72 1 5.6234 9.68623 0.51773
73 1 5.54503 9.13778 1.26671
74 1 5.28592 9.07822 2.13738
75 1 5.827 9.74625 2.48654
76 1 5.55827 9.42338 3.48836
77 1 6.15708 9.89132 4.0756
78 1 6.58042 10.6849 3.61441
79 1 6.90225 11.4344 4.24643
80 1 6.55861 11.8354 5.11309
81 1 9.81074 10.7705 20.0382
82 1 10.2248 11.5436 19.8011
83 1 11.1811 11.2412 19.5949
84 1 10.8341 11.8014 18.8663
85 1 10.8493 11.3279 17.9908
86 1 11.7089 11.6495 17.813
87 1 12.0581 11.5384 18.7441
88 1 12.8499 11.2221 18.3304
89 1 13.0635 10.4524 18.9145
90 1 12.3133 10.19 19.5051
91 1 12.1153 10.2852 18.5609
92 1 12.4949 9.48532 18.833
93 1 11.7342 9.33714 18.3314
94 1 11.9863 8.42633 18.1383
95 1 12.0991 8.07214 19.0226
96 1 12.3241 7.27317 18.4364
97 1 16.8752 8.97135 30.2364
98 1 15.9043 8.9707 30.5487
99 1 15.517 9.66896 30.0435
100 1 14.9713 9.86656 29.3016
101 1 14.7418 9.95487 28.4002
102 1 14.9054 9.66721 27.4576
103 1 15.1689 9.2023 26.6647
104 1 14.6297 8.42147 26.6949
105 1 15.5598 7.97048 26.7847
106 1 15.5149 8.31193 27.6332
107 1 16.1898 7.56302 27.9369
108 1 15.2686 7.27738 28.3243
109 1 15.2474 8.11225 28.9338
110 1 14.3944 7.66378 28.6225
111 1 14.8589 7.21324 29.365
112 1 15.21 6.43756 29.8242
113 1 22.6557 5.15079 7.99343
114 1 23.0761 4.90655 7.11795
115 1 22.1663 5.39942 6.80979
116 1 22.3891 6.05062 6.15192
117 1 22.0324 6.81082 5.80835
118 1 21.9008 7.05281 6.69321
119 1 22.113 6.41595 7.44109
120 1 22.8409 6.76654 6.82524
121 1 22.9494 7.73056 6.52664
122 1 23.3441 8.31119 5.82575
123 1 24.1165 7.81063 5.57474
124 1 23.4188 7.09464 5.25595
125 1 24.3221 7.0321 5.12378
126 1 24.9052 6.26513 5.03211
127 1 24.9265 5.34983 4.85884
128 1 25.8176 4.83657 4.79261
129 1 26.9394 10.8167 2.50516
130 1 25.8849 10.624 2.46999
131 1 25.772 9.81647 2.8402
132 1 25.2378 9.10908 2.96685
133 1 24.4295 8.75258 2.6956
134 1 23.5734 8.61768 2.21329
135 1 23.3774 8.09032 3.04555
136 1 22.7054 7.43275 2.87322
137 1 23.4767 6.98613 2.54777
138 1 24.1744 7.28158 3.14876
139 1 24.7571 6.98739 3.83576
140 1 24.201 7.70844 4.21791
141 1 23.171 7.72236 4.17687
142 1 23.568 8.32343 4.84115
143 1 22.906 8.93326 5.30408
144 1 22.8302 9.18742 4.36682
145 1 27.3191 9.2738 9.18704
146 1 26.6735 9.7638 9.83682
147 1 26.5013 10.5123 9.25983
148 1 27.4807 10.362 9.22582
149 1 27.0373 10.5284 8.37697
150 1 27.6104 10.8063 7.63971
151 1 27.175 10.7318 6.73029
152 1 26.1913 10.7577 6.96123
153 1 26.3745 11.0172 5.93001
154 1 25.9468 10.1967 6.03482
155 1 25.1975 10.8854 6.13296
156 1 25.5568 11.7592 5.96114
157 1 26.0619 12.5875 5.69405
158 1 25.5995 13.3872 5.88239
159 1 24.7878 12.8408 5.49865
160 1 23.9367 13.0232 5.14994
161 1 29.4911 12.2428 5.87872
162 1 29.9638 12.5794 5.09738
163 1 29.6692 12.1612 4.30301
164 1 30.6178 12.25 4.13414
165 1 31.0674 12.2611 4.97277
166 1 31.5668 11.5678 5.52714
167 1 31.381 10.6496 5.13401
168 1 31.1792 10.0933 5.99447
169 1 31.1352 9.10742 5.64727
170 1 31.5243 8.79382 4.8219
171 1 30.872 8.47353 4.16891
172 1 31.0893 7.85279 3.57028
173 1 31.2705 8.01648 2.68625
174 1 30.9138 8.35586 1.91301
175 1 31.1425 9.26149 1.75276
176 1 30.5083 9.8771 2.31628
177 1 29.5444 11.1492 8.91518
178 1 28.8356 10.5418 8.73831
179 1 29.2945 10.4531 7.94246
180 1 30.2792 10.5778 8.03924
181 1 30.2643 9.47928 8.41804
182 1 29.3328 9.58391 8.89679
183 1 30.119 9.56789 9.48872
184 1 29.8822 9.35926 10.3668
185 1 29.9518 9.45092 11.3406
186 1 30.7442 8.97159 10.913
187 1 30.9091 9.62809 11.623
188 1 30.2605 10.3505 11.7059
189 1 29.4124 10.2145 12.1846
190 1 28.511 10.2855 11.8605
191 1 28.9166 11.1114 11.6492
192 1 29.3151 11.5272 12.4837
193 1 6.65364 3.94032 24.9364
194 1 6.79512 3.58516 25.8524
195 1 6.13898 3.03111 26.4508
196 1 5.21734 2.73197 26.2562
197 1 5.38018 3.0815 25.463
198 1 4.68229 2.72862 24.9126
199 1 5.00794 3.55527 24.4025
200 1 4.93679 2.70396 23.8656
201 1 4.58406 1.86389 23.9379
202 1 5.31017 1.94024 23.225
203 1 4.63304 2.23556 22.663
204 1 3.71246 2.37846 23.3455
205 1 3.16 2.83949 22.7013
206 1 2.83787 3.20003 21.9623
207 1 2.13262 2.32768 22.1487
208 1 2.86796 1.57572 22.1128
209 1 15.4864 29.2671 12.9241
210 1 15.6987 30.1087 13.2932
211 1 16.5695 30.2783 12.8355
212 1 15.9767 30.3832 12.1102
213 1 16.7776 29.9587 11.6769
214 1 15.9212 29.5765 11.1279
215 1 15.0773 29.0227 11.1918
216 1 15.6244 28.2867 11.2271
217 1 16.1855 27.6654 10.7983
218 1 16.392 26.7256 11.0064
219 1 17.2203 26.7953 10.5887
220 1 17.5692 26.6091 11.4056
221 1 17.7575 25.7762 11.6909
222 1 17.4986 25.4274 10.7814
223 1 16.8617 25.9024 10.208
224 1 16.9823 26.6027 9.46935
225 1 9.86838 9.71182 8.58285
226 1 10.2455 9.93511 7.69006
227 1 10.8078 9.33096 8.20132
228 1 10.9745 9.23328 7.23175
229 1 10.6384 9.94709 6.7644
230 1 9.77002 10.3699 6.69069
231 1 9.21358 10.421 7.41104
232 1 8.43677 10.3946 8.06288
233 1 7.74256 10.2093 8.64995
234 1 8.36428 9.54723 8.90778
235 1 7.74787 8.85371 8.71245
236 1 8.29641 8.19757 9.04797
237 1 7.26097 7.82571 8.97384
238 1 7.97202 7.46085 8.20126
239 1 7.70052 6.7464 7.53448
240 1 7.44601 7.56104 7.1205
241 1 6.78575 12.3335 3.45526
242 1 5.84282 12.0473 3.80545
243 1 5.28486 11.3127 4.24887
244 1 5.96572 10.7925 4.74857
245 1 5.48224 10.4987 5.45626
246 1 5.9664 10.6621 6.36184
247 1 5.73404 9.74192 6.48387
248 1 6.23665 9.07708 6.98614
249 1 6.83309 9.55905 7.52544
250 1 6.43322 8.62044 7.87249
251 1 6.11533 8.01045 7.10618
252 1 5.41643 7.92344 6.38588
253 1 5.61002 7.42134 5.56886
254 1 5.61528 6.94968 4.73561
255 1 5.56374 6.08534 5.33008
256 1 5.44863 6.00488 6.3034
257 1 1.53483 7.76596 0.344575
258 1 1.18617 7.34422 1.10008
259 1 1.9282 7.96774 1.33942
260 1 2.45001 7.62874 2.1022
261 1 2.10683 6.88512 1.66071
262 1 1.29301 6.50479 2.01691
263 1 1.33834 6.88269 2.9357
264 1 0.743125 7.45265 3.40152
265 1 0.45539 8.21499 3.88601
266 1 0.541409 8.89307 3.25008
267 1 31.8836 9.46144 2.8817
268 1 0.719381 9.76818 2.62845
269 1 0.57158 9.72819 1.7195
270 1 1.20342 9.9784 1.03482
271 1 2.0401 9.60867 0.900439
272 1 2.16657 10.5759 0.965647
273 1 8.10707 27.0494 4.77445
274 1 8.43904 27.0455 5.5859
275 1 9.28576 26.6998 5.37533
276 1 8.89636 26.1775 4.67394
277 1 8.94715 27.11 4.26458
278 1 8.4989 26.3895 3.79439
279 1 7.86833 26.9923 3.40347
280 1 7.71208 27.9598 3.5093
281 1 6.96668 28.2397 2.87193
282 1 6.18827 28.4565 2.25143
283 1 6.98138 28.7879 1.98388
284 1 7.04922 28.3097 1.11401
285 1 7.48631 28.8946 0.509567
286 1 7.94936 28.699 31.7338
287 1 8.34114 27.8352 31.759
288 1 8.14039 27.9832 0.700396
289 1 23.1232 4.90508 14.7287
290 1 22.309 4.45519 14.6417
291 1 22.4737 3.88948 13.8692
292 1 21.4703 3.9054 13.8004
293 1 21.1082 4.79493 13.6693
294 1 21.7619 4.74156 13.0061
295 1 21.9703 5.279 12.048
296 1 22.2518 6.08407 11.6551
297 1 21.5703 6.66262 11.128
298 1 21.5632 5.67126 11.1677
299 1 21.1671 5.98629 10.3275
300 1 20.6418 6.8191 10.3251
301 1 20.0898 6.71973 9.56424
302 1 19.4866 7.11519 10.2137
303 1 19.2771 7.95964 9.8894
304 1 18.4492 7.47542 9.76487
305 1 19.5436 10.7441 14.1306
306 1 19.9047 9.91771 14.2523
307 1 20.7203 10.2323 13.7689
308 1 21.1772 9.93992 14.5175
309 1 22.0244 10.0323 14.024
310 1 22.0298 11.0939 14.2839
311 1 21.5938 10.7755 13.4337
312 1 21.2994 10.7841 12.4944
313 1 20.5046 10.859 11.9553
314 1 19.654 10.1949 11.74
315 1 20.5164 9.52816 11.8301
316 1 20.5288 10.1888 10.9823
317 1 20.937 11.0542 11.1176
318 1 20.9472 11.1943 10.125
319 1 21.5833 11.1009 9.33684
320 1 22.3747 11.6418 9.45488
321 1 1.94607 10.9636 10.6537
322 1 2.14344 11.8539 10.7635
323 1 1.51914 12.5656 10.3798
324 1 0.637934 12.2903 10.0246
325 1 0.694851 11.3079 9.79516
326 1 0.134039 11.8636 9.25703
327 1 1.01846 11.8873 8.63136
328 1 1.61152 11.2468 8.33647
329 1 1.52793 10.322 7.78805
330 1 1.58412 10.6251 6.73755
331 1 0.676948 10.5257 6.44132
332 1 0.722342 10.3014 5.50126
333 1 1.3283 9.77747 6.03253
334 1 1.00101 9.48866 6.95626
335 1 0.369705 10.0727 7.37468
336 1 31.5795 9.76335 7.61378
337 1 31.7109 1.63816 31.549
338 1 31.7385 2.33273 0.33496
339 1 0.168208 1.95194 1.16558
340 1 31.726 2.43091 1.98555
341 1 0.522737 2.97999 2.22505
342 1 0.99164 2.26499 2.00469
343 1 1.13438 1.33517 2.04599
344 1 1.88653 1.56389 2.51855
345 1 1.58768 1.04232 3.16905
346 1 1.13208 0.289965 3.68775
347 1 0.492661 31.927 3.05589
348 1 0.000115045 31.6317 2.24324
349 1 0.0859041 0.579808 2.31639
350 1 31.562 0.368127 3.0883
351 1 0.310221 0.991217 3.32015
352 1 0.875498 1.63907 3.75445
353 1 0.758421 7.90552 2.36983
354 1 0.0453724 8.24669 1.91054
355 1 31.6199 8.19534 1.08318
356 1 0.441693 8.11307 0.553583
357 1 31.8786 7.16886 0.341587
358 1 0.106424 6.8515 1.16482
359 1 0.175706 6.48472 2.05019
360 1 31.675 7.03009 2.77491
361 1 31.8044 6.06575 2.9029
362 1 30.8653 5.78457 2.50774
363 1 31.0282 4.9106 2.16016
364 1 31.8881 5.3161 1.85929
365 1 0.719221 5.05646 2.25491
366 1 0.12621 4.33111 2.56935
367 1 31.4978 4.2753 3.22979
368 1 31.6864 5.12811 3.44438
369 1 6.94479 12.911 7.40469
370 1 7.19635 13.2067 8.29924
371 1 6.8015 12.4475 8.67903
372 1 5.96857 11.8567 8.82984
373 1 6.39383 11.9405 7.98869
374 1 7.18987 11.4246 8.05144
375 1 7.24026 10.8907 7.21099
376 1 6.84138 11.4393 6.54325
377 1 6.19376 12.0505 6.09328
378 1 5.81262 12.1922 7.05539
379 1 5.28037 12.0046 7.86463
380 1 4.93063 12.8478 8.1497
381 1 4.77657 13.1504 7.26833
382 1 3.93732 12.8235 7.16896
383 1 3.09621 12.9098 7.56017
384 1 3.00967 13.7198 8.13816
385 1 7.03218 7.38455 12.4591
386 1 6.29669 7.86491 12.152
387 1 6.14382 8.78299 11.9523
388 1 6.51543 9.69721 11.4492
389 1 6.76616 8.92085 10.9682
390 1 6.37775 8.47363 10.2199
391 1 5.60332 8.49278 10.7906
392 1 5.14221 7.96162 11.5541
393 1 4.27225 7.9862 11.1884
394 1 4.47445 8.75582 11.6425
395 1 3.79156 8.89983 11.0395
396 1 3.59477 8.21853 10.4019
397 1 4.09741 7.40261 10.1933
398 1 3.21312 7.096 10.6588
399 1 2.8496 6.58631 11.4736
400 1 1.94202 6.90274 11.67
401 1 10.7514 11.8026 6.37736
402 1 9.92545 12.2919 6.70096
403 1 9.4545 11.4804 6.85332
404 1 10.1901 11.6315 7.43542
405 1 10.5797 10.9817 6.93619
406 1 11.2819 10.6985 6.41727
407 1 11.3823 11.0421 5.52586
408 1 10.9657 11.7993 5.21321
409 1 10.3291 12.3047 4.69111
410 1 10.4974 12.1574 3.75323
411 1 11.1995 11.5917 4.12353
412 1 10.6595 11.2141 3.35983
413 1 9.95184 11.2625 2.55959
414 1 10.4929 11.9442 2.16672
415 1 10.7406 12.5854 1.45558
416 1 11.6054 12.1564 1.65066
417 1 7.05319 2.42318 4.76136
418 1 7.73085 2.95939 5.16695
419 1 7.99754 3.24279 6.08303
420 1 7.63204 4.17343 5.97961
421 1 7.17009 3.98338 5.0983
422 1 6.82246 4.71308 4.51168
423 1 7.41866 5.29837 4.00904
424 1 7.57179 6.25731 4.07802
425 1 7.37969 6.29786 3.0278
426 1 7.69546 7.06961 3.20753
427 1 8.49964 6.55642 3.38908
428 1 8.81756 6.61728 4.32892
429 1 8.15424 7.32227 4.53194
430 1 8.26114 7.46241 5.51177
431 1 8.35092 6.55161 5.403
432 1 7.45963 6.36134 5.11873
433 1 4.80714 5.46163 4.454
434 1 5.16378 6.17265 4.0036
435 1 5.47899 7.00614 3.50969
436 1 6.37045 6.99818 3.88604
437 1 6.60037 7.64857 3.16881
438 1 6.36665 6.84896 2.72114
439 1 5.80058 6.1011 2.57507
440 1 6.21211 5.95536 3.54789
441 1 5.97421 5.17648 3.06038
442 1 4.99875 5.13768 3.13436
443 1 4.23649 5.41323 3.51188
444 1 4.38396 5.74324 2.61891
445 1 3.82403 4.84586 2.50584
446 1 2.98581 4.89107 2.922
447 1 2.73242 5.62725 2.42219
448 1 1.78227 5.6262 2.23379
449 1 15.154 3.49053 12.3391
450 1 15.6736 4.21365 12.1642
451 1 15.1183 4.95399 12.4018
452 1 14.2617 5.01429 12.003
453 1 14.2459 4.10022 12.3105
454 1 13.4751 3.60997 12.605
455 1 12.6698 3.14026 12.821
456 1 12.09 3.2948 13.5486
457 1 12.2893 4.20979 13.2826
458 1 12.7521 5.09023 12.9219
459 1 13.1999 4.93142 13.7797
460 1 12.9855 5.84668 13.9597
461 1 13.0781 6.57104 13.3034
462 1 12.12 6.79602 13.0167
463 1 12.8807 7.54066 13.3001
464 1 12.3053 7.54782 14.0845
465 1 19.9126 11.1797 4.19019
466 1 20.0052 11.0694 5.14461
467 1 19.1305 10.9742 4.76545
468 1 19.3326 10.0542 4.56326
469 1 19.1931 10.2585 5.42948
470 1 20.1564 10.0907 5.659
471 1 20.7471 9.94582 4.86966
472 1 21.4483 9.8423 4.19417
473 1 21.8272 9.60641 5.09121
474 1 21.909 9.75531 5.97249
475 1 21.269 10.3094 5.64999
476 1 21.7135 10.5712 6.51704
477 1 22.5069 10.1538 6.95182
478 1 23.4062 10.2368 6.54315
479 1 22.9619 11.1402 6.57031
480 1 23.71 11.2169 5.99473
481 1 26.1539 8.4101 3.64041
482 1 25.2596 8.23481 3.88936
483 1 24.9459 7.88255 4.75432
484 1 25.6651 7.18538 4.78434
485 1 26.512 6.73675 4.80469
486 1 26.6977 6.87596 5.72281
487 1 27.5917 6.80487 6.16137
488 1 26.975 6.27458 6.67591
489 1 26.2468 6.04351 7.22693
490 1 25.6501 6.57563 7.78208
491 1 26.5866 6.87524 7.80667
492 1 26.1713 6.95346 8.6823
493 1 27.1715 6.67231 8.72081
494 1 27.8076 5.94657 8.9694
495 1 27.2204 5.79743 8.22054
496 1 26.3998 5.32452 8.29227
497 1 28.0713 9.16022 11.123
498 1 28.145 9.18835 10.1079
499 1 28.565 9.0863 9.22138
500 1 28.6162 8.02855 9.13505
501 1 27.8198 8.06621 9.68547
502 1 27.1352 7.76144 9.10715
503 1 26.7692 8.1569 8.32375
504 1 26.851 7.86788 7.35538
505 1 27.6709 7.80244 6.99052
506 1 27.2164 8.68074 6.82677
507 1 27.5483 9.52378 6.44362
508 1 26.7403 9.89946 6.86418
509 1 26.1056 9.27735 6.70335
510 1 26.7327 9.13889 5.90916
511 1 26.8043 9.68325 5.11758
512 1 25.886 9.72789 5.15544
513 1 4.62471 6.63594 8.00624
514 1 5.14975 6.91543 7.33287
515 1 4.60038 6.84877 6.52556
516 1 4.62154 6.7739 5.5427
517 1 4.00273 6.22554 4.89677
518 1 3.42084 6.06054 5.64357
519 1 3.10585 5.10212 5.47266
520 1 2.48382 5.08585 4.63628
521 1 3.21933 5.02738 4.01937
522 1 2.72683 5.87079 3.73747
523 1 2.37672 6.10264 4.67162
524 1 2.52075 6.99774 4.27001
525 1 1.86042 7.63228 4.45269
526 1 1.66339 8.5612 4.56454
527 1 2.62276 8.26759 4.4649
528 1 2.96188 8.40771 5.32094
529 1 30.2881 12.3113 6.5599
530 1 29.9478 11.6629 7.17241
531 1 29.6347 10.8136 7.02322
532 1 29.3967 9.91123 6.63742
533 1 30.0191 9.32363 6.95764
534 1 30.0813 8.89301 6.00466
535 1 29.9545 9.51084 5.05071
536 1 29.0132 9.77782 4.94005
537 1 28.4781 9.51309 5.65369
538 1 27.896 10.3372 5.9263
539 1 28.2423 10.2622 6.89347
540 1 28.5118 9.69765 7.54576
541 1 28.4583 8.97964 6.79311
542 1 28.9261 8.09197 6.19184
543 1 29.8038 7.82343 5.83653
544 1 30.4066 8.00484 6.70274
545 1 6.71078 7.32912 5.55704
546 1 6.53075 7.66388 4.70217
547 1 6.32406 8.30786 5.33636
548 1 6.4619 9.14402 5.89552
549 1 7.16001 9.79924 5.65551
550 1 6.846 10.7205 5.47304
551 1 6.9483 10.2205 4.62739
552 1 7.14736 9.28398 4.44635
553 1 6.25278 9.24045 4.91643
554 1 5.43327 9.7213 4.75893
555 1 4.97764 10.0582 4.01058
556 1 4.22996 10.6623 4.28844
557 1 4.73217 11.0251 3.40535
558 1 4.95667 11.5334 2.47231
559 1 4.22649 11.8113 3.03491
560 1 3.75979 12.438 3.52491
561 1 31.547 22.7201 22.6159
562 1 31.6209 21.9157 23.2285
563 1 0.418977 22.3958 23.6923
564 1 0.0641383 23.2313 24.1865
565 1 0.932663 23.2177 24.6905
566 1 0.837423 22.7322 25.5443
567 1 0.0312957 22.3303 25.2374
568 1 31.2307 21.6304 25.2891
569 1 30.5411 21.7734 24.5338
570 1 29.7802 22.0763 25.1339
571 1 30.361 22.7498 24.8476
572 1 29.8569 23.3604 25.4624
573 1 29.4277 22.6757 25.9748
574 1 30.2154 22.0777 26.1384
575 1 30.0524 21.1429 25.9374
576 1 30.1864 20.2984 25.414
577 1 0.896895 7.82254 5.43831
578 1 1.83246 8.06005 5.6702
579 1 1.8508 7.07865 5.56803
580 1 1.6959 6.11065 5.61426
581 1 2.38944 5.83322 6.33602
582 1 2.92571 6.19729 6.92437
583 1 2.15024 6.34111 7.45092
584 1 2.36783 6.7184 8.27266
585 1 3.23012 6.45742 8.63271
586 1 3.41391 7.27601 9.11096
587 1 2.73684 7.926 8.84705
588 1 3.62769 8.25792 8.67765
589 1 3.38314 7.61606 7.83554
590 1 2.84288 7.76435 7.06981
591 1 1.97129 7.42072 6.79817
592 1 1.19709 7.97226 6.83787
593 1 19.6709 12.9894 1.87923
594 1 19.6128 12.4713 1.116
595 1 20.34 12.0932 1.63578
596 1 19.6703 12.0261 2.36514
597 1 20.1227 12.7475 2.89039
598 1 21.0102 12.9505 2.2981
599 1 21.3714 12.9501 3.22667
600 1 21.0186 13.872 3.12117
601 1 20.1976 13.7077 3.56738
602 1 20.8879 13.3694 4.13133
603 1 20.3881 13.8472 4.74757
604 1 19.5417 13.6326 4.46815
605 1 19.901 12.7802 4.01623
606 1 20.346 12.132 4.47068
607 1 20.3804 11.8242 3.54012
608 1 20.8905 11.0168 3.99019
609 1 31.4525 5.47214 6.68303
610 1 0.0911626 4.70801 6.83695
611 1 0.403137 5.36352 6.15404
612 1 0.00238308 6.25385 5.69085
613 1 0.533838 5.83775 4.99694
614 1 1.21176 5.19194 4.90719
615 1 1.32676 5.37805 3.85908
616 1 0.44434 5.51121 4.01288
617 1 0.765007 6.35566 3.55107
618 1 1.19602 6.53631 4.45166
619 1 0.309845 6.94416 4.31282
620 1 31.6509 7.64854 4.57
621 1 30.7716 7.78995 4.90431
622 1 29.8215 7.70235 4.90478
623 1 29.2731 6.93751 4.72292
624 1 30.092 6.52679 5.05175
625 1 24.5022 9.73311 8.4545
626 1 25.4513 10.2032 8.57649
627 1 26.2473 9.83438 8.2316
628 1 27.0484 9.20511 8.24744
629 1 27.7926 8.89381 7.68654
630 1 27.9568 8.32186 8.40128
631 1 28.2576 7.3064 8.38173
632 1 28.688 7.16402 7.48958
633 1 27.8861 6.75854 7.16475
634 1 28.5262 6.60337 6.47202
635 1 29.1104 6.31247 5.87111
636 1 28.7912 7.13417 5.53991
637 1 28.3091 7.63437 4.95344
638 1 27.9643 8.36773 4.51771
639 1 27.9385 9.29195 4.55045
640 1 27.1581 8.84263 4.99583
641 1 26.0344 11.9353 3.82484
642 1 25.7608 11.5386 3.04002
643 1 25.2894 10.7643 3.40056
644 1 25.1523 9.80875 3.86386
645 1 24.5585 9.37051 4.54047
646 1 23.8913 9.20912 5.21654
647 1 23.9681 10.1961 5.08732
648 1 24.3219 11.0411 4.69071
649 1 24.964 10.3596 4.7849
650 1 25.753 10.7372 4.42499
651 1 26.4607 10.1567 4.27381
652 1 26.7702 10.9435 3.72377
653 1 27.1834 10.8741 4.67355
654 1 28.1209 10.7842 4.56818
655 1 27.8707 10.3489 3.70664
656 1 27.9576 11.0991 3.06437
657 1 30.7967 18.5014 8.98953
658 1 30.2248 18.0629 8.4772
659 1 29.4632 17.4005 8.49782
660 1 29.1824 16.7747 9.16552
661 1 28.7718 17.2117 9.99122
662 1 29.2221 16.6599 10.5943
663 1 30.0715 17.1683 10.6063
664 1 30.3983 16.4903 9.93665
665 1 31.1583 17.0403 9.75217
666 1 31.0616 18.1192 9.95243
667 1 31.6455 18.1203 10.691
668 1 31.4964 17.335 10.9762
669 1 0.446821 17.4743 11.3333
670 1 0.1077 17.8634 12.2101
671 1 0.265298 18.5386 11.5026
672 1 0.0414334 19.229 12.2439
673 1 26.7549 11.6696 7.49233
674 1 27.4332 12.3004 7.23773
675 1 28.0509 11.9709 7.8228
676 1 28.6061 11.2409 7.63799
677 1 29.1991 12.027 7.82042
678 1 29.2098 12.3211 8.8166
679 1 28.7302 13.0274 9.2421
680 1 29.2665 13.7142 8.6824
681 1 28.4454 13.8366 8.30705
682 1 28.5464 14.709 8.05393
683 1 29.4271 14.75 7.6185
684 1 29.6889 13.827 7.23947
685 1 29.5543 14.5356 6.60978
686 1 28.6893 14.3182 6.96408
687 1 28.0047 14.8058 6.56506
688 1 27.0863 14.3531 6.34243
689 1 26.9236 17.0364 11.4814
690 1 26.0978 16.6879 11.7712
691 1 25.8205 17.3068 12.581
692 1 26.4657 17.7652 12.0711
693 1 27.0366 18.4996 12.0929
694 1 27.6665 18.7617 12.7492
695 1 28.2732 18.9679 12.0888
696 1 29.2081 18.8665 12.1391
697 1 29.5277 18.2472 12.7688
698 1 29.8848 18.0447 11.8971
699 1 29.2167 17.4492 11.5588
700 1 28.6722 16.851 12.1044
701 1 28.6915 15.9075 11.783
702 1 28.6004 15.8449 10.7258
703 1 27.7544 16.1332 10.946
704 1 28.2341 16.94 10.8617
705 1 26.5177 14.3429 11.3464
706 1 27.0251 15.0832 11.1409
707 1 26.9595 15.8052 10.4404
708 1 27.2341 15.0055 9.79176
709 1 27.1341 14.2854 10.5061
710 1 26.8276 13.8338 9.67898
711 1 26.1581 13.2331 9.45986
712 1 26.066 12.8078 10.4368
713 1 25.9551 12.3182 9.61054
714 1 25.2591 11.9973 8.88811
715 1 25.8549 11.3415 9.21888
716 1 26.7954 11.6772 9.39185
717 1 27.1362 12.608 9.21973
718 1 28.0043 12.2747 8.82227
719 1 27.3974 12.7191 8.14941
720 1 26.5955 12.2386 8.4178
721 1 5.78753 17.0168 31.907
722 1 5.10584 16.7623 31.2096
723 1 5.06077 16.2702 30.3548
724 1 5.70611 15.9309 30.9314
725 1 5.21809 15.8344 31.7746
726 1 4.83262 16.4456 0.409238
727 1 4.90009 15.6296 0.985718
728 1 4.27136 16.2345 1.37173
729 1 3.96718 15.3414 1.252
730 1 3.47406 14.9431 0.413513
731 1 4.05935 14.2191 31.9281
732 1 4.58325 13.4301 31.7306
733 1 5.27914 13.7889 0.29752
734 1 4.74988 13.491 1.06045
735 1 4.34491 14.0521 1.75131
736 1 4.73734 13.98 2.61508
737 1 0.206845 11.7245 3.53766
738 1 31.919 11.6454 4.45309
739 1 0.396451 10.8034 4.46657
740 1 31.9737 9.93482 4.03031
741 1 0.917241 9.72789 3.85317
742 1 1.39295 9.7506 4.69651
743 1 1.99858 9.29458 5.32239
744 1 2.83654 9.77625 4.75702
745 1 3.15697 9.40024 3.99941
746 1 2.3499 9.35595 3.50703
747 1 1.71149 9.41824 2.72081
748 1 1.59544 9.11987 1.7691
749 1 1.65432 8.35677 2.48487
750 1 1.71284 8.37397 3.51456
751 1 2.47228 7.74426 3.48691
752 1 3.33709 7.67005 3.70867
753 1 0.780012 12.327 7.67346
754 1 1.65418 12.6689 7.71371
755 1 1.43127 12.8176 8.68649
756 1 0.436996 12.7631 8.71638
757 1 31.5591 13.1398 9.01532
758 1 31.1283 12.3999 9.56356
759 1 31.2356 12.2559 8.64051
760 1 30.368 12.5025 8.66159
761 1 30.3694 12.6508 7.76604
762 1 30.6196 11.6625 7.87476
763 1 31.3356 11.4892 7.25049
764 1 31.9675 11.9102 7.89169
765 1 31.9094 12.4509 7.08029
766 1 31.1865 12.986 6.74191
767 1 30.4062 13.4436 6.47429
768 1 29.4821 13.3956 6.24084
769 1 4.76889 10.3446 9.63001
770 1 4.54491 9.35771 9.75876
771 1 4.79254 9.27375 8.75809
772 1 5.28649 8.98499 7.96658
773 1 5.55032 9.82577 8.31408
774 1 5.85257 9.89059 9.24478
775 1 6.82541 10.2038 9.21239
776 1 6.05706 10.6775 8.77719
777 1 6.2976 10.7131 7.82899
778 1 5.48892 11.0616 7.56772
779 1 4.66984 10.4786 7.71414
780 1 4.78923 9.88197 6.92006
781 1 4.69322 10.0956 5.95254
782 1 4.92244 9.16018 6.19419
783 1 4.84078 8.62204 7.02737
784 1 4.76906 7.92295 7.79379
785 1 12.5079 9.25186 6.575
786 1 11.6626 8.67199 6.46564
787 1 11.1938 8.46808 5.6649
788 1 10.5657 9.08495 6.08444
789 1 10.0375 8.39556 5.71373
790 1 9.55694 9.10594 5.92758
791 1 9.06471 9.54256 6.61089
792 1 8.57329 10.3773 6.41953
793 1 8.16187 9.6479 6.99351
794 1 7.61918 8.9355 7.56616
795 1 8.23164 8.23394 7.30567
796 1 9.09872 8.16171 7.65901
797 1 9.72361 8.26292 6.9887
798 1 10.6636 8.13043 6.67303
799 1 10.1546 7.25207 6.27447
800 1 10.0821 7.30871 7.25516
801 1 23.1489 20.7388 8.15156
802 1 22.9181 21.3829 8.79172
803 1 22.9831 21.8401 7.94241
804 1 22.1243 21.3908 7.89814
805 1 22.3719 20.7222 7.26322
806 1 22.7947 20.0766 6.72899
807 1 22.8677 19.6771 7.59552
808 1 21.9472 19.703 7.17511
809 1 21.6297 20.3167 7.87344
810 1 20.9972 21.017 7.42842
811 1 20.1214 20.7409 7.23449
812 1 20.0634 20.9224 6.17813
813 1 19.164 20.9925 5.84041
814 1 18.8304 20.8247 4.93824
815 1 19.21 21.6668 4.96926
816 1 19.7369 21.9764 4.21
817 1 28.574 12.5834 6.96594
818 1 28.8079 13.3675 7.37734
819 1 27.8998 13.7422 7.19565
820 1 27.2998 14.2212 7.8272
821 1 26.3465 14.0058 8.17273
822 1 25.7519 14.4499 7.45301
823 1 25.4392 14.6695 8.35984
824 1 25.3508 14.8733 9.40328
825 1 25.3642 15.4437 10.0996
826 1 24.8291 14.6784 10.3786
827 1 23.8172 14.5115 10.2809
828 1 24.3739 13.992 9.77555
829 1 23.9868 13.345 10.4656
830 1 24.494 12.746 9.88349
831 1 25.021 12.5313 10.7136
832 1 25.1944 13.565 10.6159
833 1 27.3326 17.3969 7.39934
834 1 27.2328 16.606 6.89693
835 1 26.5707 15.8878 6.94529
836 1 26.9116 15.0363 7.28003
837 1 27.108 15.228 8.19231
838 1 27.3341 16.1505 7.83944
839 1 27.9827 15.6999 7.34502
840 1 28.2518 15.9723 6.44151
841 1 28.295 16.5898 7.20621
842 1 28.0633 16.9209 6.30288
843 1 27.9699 17.2131 5.39699
844 1 26.9978 17.5646 5.57497
845 1 27.4752 17.7398 6.4462
846 1 26.3629 17.6857 6.52564
847 1 25.9474 17.4262 5.63043
848 1 25.4252 17.5959 4.81824
849 1 25.339 8.10932 7.5005
850 1 26.0201 8.68637 7.80686
851 1 25.5127 9.03601 8.54309
852 1 26.2113 9.10329 9.22125
853 1 25.6522 9.67792 9.92298
854 1 25.7769 8.89823 10.5591
855 1 24.8644 8.85793 10.782
856 1 25.2095 8.12312 10.0988
857 1 24.776 8.55265 9.35369
858 1 24.0974 8.95996 8.8387
859 1 23.2571 9.01539 8.42279
860 1 22.3134 9.00341 8.07783
861 1 21.6997 8.3284 8.38349
862 1 21.0064 7.9047 8.91754
863 1 21.1275 7.48847 9.82264
864 1 21.7812 7.27914 10.4481
865 1 6.01796 25.7803 20.2111
866 1 4.99946 25.7247 20.219
867 1 4.98016 25.0495 20.9358
868 1 5.81729 25.1728 21.5321
869 1 6.16464 24.7511 20.714
870 1 5.685 24.733 19.9273
871 1 5.99115 24.2052 19.0967
872 1 6.62304 23.4934 18.8305
873 1 7.13752 22.6829 18.6847
874 1 7.74752 23.4533 18.8557
875 1 8.12949 22.6732 19.3507
876 1 8.41823 22.5918 20.2393
877 1 8.87237 23.4639 20.63
878 1 8.30063 24.1998 20.9498
879 1 8.81333 24.1657 21.8398
880 1 8.00188 24.7267 21.8808
881 1 1.26544 11.6097 6.844
882 1 0.495281 11.7485 6.09456
883 1 0.660984 11.6651 5.17332
884 1 1.32151 11.2325 5.86178
885 1 1.56909 12.0678 5.70858
886 1 2.18662 11.4051 5.36971
887 1 2.45119 11.3793 6.25131
888 1 2.96661 10.831 6.77823
889 1 3.94258 10.6389 6.96188
890 1 4.29647 11.4494 7.00888
891 1 3.43122 11.8076 7.17609
892 1 2.598 12.0979 7.60997
893 1 1.90017 12.3776 6.80634
894 1 1.10187 12.8905 6.61691
895 1 0.325799 12.8566 6.01013
896 1 31.6613 13.0457 5.22731
897 1 8.15078 12.6015 7.30926
898 1 8.63294 12.8037 6.47498
899 1 7.85762 12.2487 6.27868
900 1 7.68289 11.3948 5.92473
901 1 8.25626 11.0103 5.31426
902 1 7.96655 10.9016 4.47603
903 1 8.14008 10.37 3.67883
904 1 7.49037 10.726 3.12135
905 1 8.08375 10.1778 2.6707
906 1 7.59397 9.64202 2.07095
907 1 8.11959 9.8237 1.32291
908 1 7.57172 8.9079 1.19555
909 1 7.64877 8.42931 1.97971
910 1 6.87472 7.81261 1.79274
911 1 6.70987 8.25089 1.03623
912 1 6.50434 8.31745 0.171882
913 1 9.91589 11.6185 5.80872
914 1 9.27178 12.23 5.56233
915 1 8.61879 12.5928 4.82105
916 1 7.70989 12.4086 4.73447
917 1 7.64217 12.8723 3.92941
918 1 6.91971 13.4172 3.65985
919 1 6.61597 14.287 3.47285
920 1 6.12708 13.8319 2.85178
921 1 5.60854 14.5135 2.3372
922 1 5.67319 14.6862 3.36267
923 1 5.18303 14.6582 4.16874
924 1 5.29482 15.5127 3.90787
925 1 4.44871 15.2605 3.73375
926 1 3.96385 14.7882 3.0989
927 1 3.26601 15.2278 3.64471
928 1 3.47283 16.0947 3.921
929 1 8.11029 18.5351 2.8798
930 1 8.46275 18.0125 2.20507
931 1 9.12954 17.5452 1.70495
932 1 8.74876 16.8121 2.17516
933 1 7.98199 17.1655 2.79396
934 1 7.17454 17.4248 2.50144
935 1 7.067 18.3998 2.32853
936 1 6.75883 17.9795 1.54183
937 1 7.6791 17.8549 1.6411
938 1 7.52819 17.3442 0.83079
939 1 8.35123 17.7134 0.766817
940 1 8.79631 17.8653 31.9484
941 1 9.29101 17.5391 0.688939
942 1 9.01545 16.8691 31.955
943 1 9.64372 16.9891 31.3451
944 1 10.4981 16.9729 31.6386
945 1 3.92547 12.7667 6.20046
946 1 4.65453 12.358 6.54898
947 1 5.19378 11.4486 6.44834
948 1 5.51621 11.54 5.5105
949 1 4.74191 11.8382 4.99869
950 1 4.41678 12.7413 4.96376
951 1 3.61406 12.8084 4.57171
952 1 3.18845 13.3359 5.22666
953 1 3.45428 13.727 6.05004
954 1 3.97082 14.4355 6.38222
955 1 4.02234 14.7147 5.5044
956 1 4.8549 14.5242 5.75802
957 1 4.73653 15.1266 4.90315
958 1 3.9233 15.4562 4.63555
959 1 3.04144 15.1413 4.6926
960 1 2.97274 14.5985 5.44254
961 1 7.77774 18.7074 10.6095
962 1 8.04859 19.4907 10.0107
963 1 7.15018 19.4118 9.65376
964 1 6.46001 19.9585 10.0044
965 1 5.85243 20.6693 10.1553
966 1 5.5163 20.419 9.24153
967 1 4.69931 20.9166 9.06693
968 1 4.6933 20.2121 8.4519
969 1 3.92998 20.4481 7.913
970 1 3.01404 20.4199 7.83164
971 1 2.53355 19.8647 8.49756
972 1 2.13159 20.6067 8.73049
973 1 2.35256 20.6856 9.65539
974 1 1.79137 21.195 10.4216
975 1 1.29461 20.9254 9.62052
976 1 1.27763 20.2188 10.2417
977 1 20.4043 7.73621 4.8152
978 1 21.2347 7.53985 4.41992
979 1 21.8923 7.82257 3.79514
980 1 21.7989 8.36044 4.59928
981 1 22.3445 7.83913 5.13041
982 1 22.0338 7.93673 6.04087
983 1 21.984 8.29829 6.93419
984 1 22.3762 7.7286 7.61994
985 1 21.8311 7.11086 8.10342
986 1 21.8423 7.13981 9.08174
987 1 22.5202 7.76991 9.33097
988 1 23.4693 7.61877 9.16963
989 1 24.3858 7.4019 9.32048
990 1 24.7481 7.76595 8.55036
991 1 24.5079 8.53611 8.00065
992 1 23.5795 8.12732 8.21959
993 1 16.7779 15.7996 5.00218
994 1 16.0726 16.0068 5.77288
995 1 16.4175 16.9836 5.63043
996 1 16.0742 17.4139 6.29688
997 1 15.7827 18.3163 6.081
998 1 15.6412 19.2502 6.34548
999 1 16.4605 19.0299 5.8603
1000 1 17.0821 18.7957 5.1102
1001 1 17.4541 18.4589 4.37312
1002 1 17.2079 17.5778 4.01795
1003 1 16.6249 17.9857 4.67387
1004 1 15.674 18.2587 4.74104