ITEM: TIMESTEP
0
ITEM: NUMBER OF ATOMS
1632
ITEM: BOX BOUNDS pp pp pp
0.0000000000000000e+00 3.2000000000000000e+01
0.0000000000000000e+00 3.2000000000000000e+01
0.0000000000000000e+00 3.2000000000000000e+01
ITEM: ATOMS id type q xu yu zu
1 1 1 -6.27113 -6.61766 21.1305
2 1 1 -6.00535 -7.5898 20.8975
3 1 1 -6.62375 -7.74693 21.6693
4 1 1 -7.37321 -8.04721 21.1886
5 1 1 -7.47303 -8.50345 20.4355
6 1 1 -7.82669 -9.39273 20.2435
7 1 1 -7.32687 -9.64422 21.0203
8 1 1 -6.51734 -9.87075 21.4791
9 1 1 -6.22627 -9.63434 22.3982
10 1 1 -6.62756 -10.171 23.0997
11 1 1 -6.13339 -9.37826 23.4294
12 1 1 -6.78863 -8.79458 23.0265
13 1 -1 -6.39373 -7.94025 22.877
14 1 -1 -5.80476 -8.64412 22.5735
15 1 -1 -5.99543 -8.83093 21.6238
16 1 -1 -6.9283 -8.88533 21.9439
17 1 -1 -7.87423 -9.14484 21.8728
18 1 -1 -7.36227 -9.9105 22.0748
19 1 -1 -7.93791 -10.1633 22.7661
20 1 -1 -8.87554 -10.0533 22.3023
21 1 -1 -9.47885 -9.40658 22.6696
22 1 -1 -10.2015 -10.0048 22.3998
23 1 -1 -9.96846 -10.2553 23.3399
24 1 -1 -9.35572 -9.48882 23.6278
25 1 1 19.9417 -6.0097 8.6208
26 1 1 19.2807 -5.86672 7.91664
27 1 1 18.7031 -6.45175 7.36917
28 1 1 18.3591 -7.26681 7.80277
29 1 1 18.3328 -7.65444 8.76131
30 1 1 18.4506 -8.09992 9.59603
31 1 1 18.557 -7.11499 9.67811
32 1 1 19.2319 -6.29474 9.58619
33 1 1 19.0163 -5.33598 9.7026
34 1 1 18.3587 -5.34916 10.3916
35 1 1 19.0386 -5.45064 11.0739
36 1 1 19.2697 -4.95225 11.8813
37 1 -1 18.37 -5.07545 11.8776
38 1 -1 18.606 -4.78249 12.7994
39 1 -1 19.2737 -5.35648 13.1795
40 1 -1 19.79 -4.65999 12.7825
41 1 -1 20.658 -4.33934 13.1204
42 1 -1 20.0514 -3.61803 13.343
43 1 -1 20.8063 -3.12777 13.0454
44 1 -1 20.9197 -2.32476 12.6457
45 1 -1 20.162 -1.94305 12.2574
46 1 -1 19.2928 -2.09475 12.7739
47 1 -1 19.5046 -1.47622 13.5902
48 1 -1 18.614 -1.91648 13.5318
49 1 1 18.1814 -6.13724 11.3186
50 1 1 18.7943 -6.13148 12.0594
51 1 1 19.6473 -5.82633 12.3266
52 1 1 19.3576 -6.37019 13.1011
53 1 1 19.3502 -6.38667 14.1121
54 1 1 19.2342 -5.99127 15.0425
55 1 1 18.6026 -6.67457 14.8303
56 1 1 19.2722 -7.44262 14.7538
57 1 1 19.8327 -7.96319 15.2314
58 1 1 20.8341 -7.88414 15.1876
59 1 1 21.6965 -7.81682 14.9076
60 1 1 21.4214 -7.13476 14.2385
61 1 -1 22.0488 -6.54149 13.7385
62 1 -1 21.4022 -5.98912 14.2015
63 1 -1 22.0086 -5.32447 14.0289
64 1 -1 22.3402 -5.23167 13.1279
65 1 -1 22.9985 -5.42474 13.7985
66 1 -1 22.8167 -6.16096 13.0914
67 1 -1 22.7309 -5.95292 12.1339
68 1 -1 22.8471 -5.02957 12.2396
69 1 -1 23.7151 -5.44936 12.1103
70 1 -1 24.5566 -5.37643 11.6208
71 1 -1 23.7607 -5.11829 11.1587
72 1 -1 23.9241 -4.46272 10.4893
73 1 1 20.4638 -2.5581 15.0072
74 1 1 20.3978 -3.19274 15.7675
75 1 1 20.3539 -4.09678 15.3335
76 1 1 20.6028 -3.68949 14.5068
77 1 1 21.2435 -4.49365 14.607
78 1 1 21.9972 -4.7441 15.1343
79 1 1 21.9118 -5.57045 15.588
80 1 1 22.4552 -5.31393 16.3167
81 1 1 22.0468 -5.53184 17.1966
82 1 1 21.1655 -5.92173 17.305
83 1 1 21.5984 -6.64437 17.8238
84 1 1 22.2449 -6.9922 17.2319
85 1 -1 21.8005 -6.40353 16.5524
86 1 -1 21.5241 -7.18036 15.9817
87 1 -1 21.2466 -6.59331 15.3343
88 1 -1 20.358 -6.93673 15.1883
89 1 -1 20.2666 -6.15689 14.6067
90 1 -1 20.8449 -5.46715 14.8637
91 1 -1 21.1138 -4.91295 15.6418
92 1 -1 21.7767 -4.53881 16.2294
93 1 -1 22.4642 -3.93025 15.7632
94 1 -1 22.2441 -3.42476 15.0462
95 1 -1 21.3819 -2.99984 14.9317
96 1 -1 21.2765 -3.84127 15.5117
97 1 1 20.9391 -6.79384 9.06604
98 1 1 21.0602 -7.44584 9.73396
99 1 1 21.4732 -8.07469 10.4059
100 1 1 20.7457 -7.4525 10.712
101 1 1 20.4368 -6.87362 11.4425
102 1 1 20.1382 -5.95512 11.4752
103 1 1 20.8032 -6.06176 10.833
104 1 1 21.1156 -5.16648 11.2163
105 1 1 20.823 -4.35874 10.8096
106 1 1 21.2844 -3.51929 10.8251
107 1 1 21.5485 -3.7269 11.7799
108 1 1 20.7994 -3.06872 11.8696
109 1 -1 20.1101 -3.31788 11.2591
110 1 -1 19.3789 -3.92866 11.4409
111 1 -1 19.1851 -4.52564 10.6588
112 1 -1 19.9577 -4.84499 11.1393
113 1 -1 20.1521 -4.97519 10.1891
114 1 -1 20.2378 -5.86319 9.85019
115 1 -1 20.0247 -6.58796 10.3584
116 1 -1 19.8886 -7.45103 9.92306
117 1 -1 19.3537 -7.83879 10.624
118 1 -1 18.9675 -7.51553 11.4317
119 1 -1 19.3882 -6.61848 11.4115
120 1 -1 18.9267 -6.37202 10.6392
121 1 1 24.1011 -6.46982 18.2682
122 1 1 24.2164 -7.17802 18.8478
123 1 1 23.7188 -6.51523 19.2272
124 1 1 23.6262 -6.45775 20.1775
125 1 1 24.2674 -5.76349 19.9478
126 1 1 23.5797 -5.2686 20.4352
127 1 1 23.5832 -4.73294 21.231
128 1 1 24.4921 -5.00268 21.133
129 1 1 24.1564 -5.9378 21.1648
130 1 1 23.6968 -6.51914 21.7543
131 1 1 23.3656 -5.72283 22.1916
132 1 1 22.7844 -5.18918 21.5756
133 1 -1 23.1977 -4.69305 22.3858
134 1 -1 24.0542 -4.90129 22.0392
135 1 -1 23.9738 -3.98331 21.7445
136 1 -1 23.9894 -3.58827 20.9113
137 1 -1 23.4523 -2.74664 21.0001
138 1 -1 24.2834 -2.28684 20.8905
139 1 -1 25.0982 -2.75826 21.3144
140 1 -1 25.9123 -3.08156 20.8595
141 1 -1 26.1641 -3.99165 20.8909
142 1 -1 25.4025 -4.6217 20.8517
143 1 -1 25.3672 -5.58731 21.0094
144 1 -1 25.4596 -5.48172 20.0456
145 1 1 -11.1561 22.6521 55.6029
146 1 1 -10.516 22.1625 56.0992
147 1 1 -10.8014 21.4449 56.689
148 1 1 -11.7209 21.2436 56.3655
149 1 1 -11.3437 20.3463 56.6763
150 1 1 -11.2498 19.7747 56.009
151 1 1 -11.7213 19.2123 56.6492
152 1 1 -12.0916 19.7722 57.3375
153 1 1 -12.1161 19.9144 58.2562
154 1 1 -12.1558 20.8026 58.521
155 1 1 -11.2257 20.4501 58.7267
156 1 1 -10.9568 19.5012 58.6696
157 1 -1 -10.6543 19.1698 57.807
158 1 -1 -11.0976 19.9607 57.6625
159 1 -1 -10.3634 20.419 57.9815
160 1 -1 -11.0536 21.0802 57.9359
161 1 -1 -10.4444 21.8251 57.9397
162 1 -1 -10.4546 21.284 58.7751
163 1 -1 -10.8121 21.3516 59.6417
164 1 -1 -11.3261 21.9023 59.0682
165 1 -1 -12.264 21.7084 59.1493
166 1 -1 -11.7514 21.6046 59.9674
167 1 -1 -12.6496 21.6364 60.1159
168 1 -1 -13.263 21.8682 59.4403
169 1 1 -12.3776 22.7702 28.5745
170 1 1 -13.2922 22.6581 28.1779
171 1 1 -13.579 21.9781 28.8108
172 1 1 -13.5302 21.7592 29.7609
173 1 1 -13.5801 21.0076 30.3213
174 1 1 -12.8245 20.3475 30.1802
175 1 1 -13.5771 20.131 29.6266
176 1 1 -13.9562 20.9143 29.201
177 1 1 -13.0416 20.8334 28.9486
178 1 1 -12.897 20.2441 28.2063
179 1 1 -12.5376 19.8428 29.0239
180 1 1 -12.1807 19.1187 29.6835
181 1 -1 -11.9431 19.0801 28.7889
182 1 -1 -12.0261 19.6303 27.9996
183 1 -1 -12.7729 19.2065 28.2782
184 1 -1 -13.5081 19.0936 28.829
185 1 -1 -13.9239 19.9318 28.6999
186 1 -1 -13.9997 20.7531 28.1635
187 1 -1 -14.0838 21.7081 27.9966
188 1 -1 -14.6632 21.8817 28.8232
189 1 -1 -14.6625 21.5687 29.7028
190 1 -1 -14.9568 22.4452 29.6756
191 1 -1 -14.9874 22.6163 30.631
192 1 -1 -14.3137 22.909 31.2374
193 1 1 16.5423 -5.25993 12.9564
194 1 1 16.8552 -4.65659 13.5838
195 1 1 17.1679 -5.35835 14.1296
196 1 1 17.7032 -6.1714 14.2388
197 1 1 18.0842 -5.85038 15.1675
198 1 1 18.1793 -5.32083 16.036
199 1 1 18.9754 -5.60659 16.488
200 1 1 19.4683 -5.91388 17.252
201 1 1 19.1091 -6.72224 16.9095
202 1 1 20.0492 -6.55012 16.5539
203 1 1 20.4991 -5.67078 16.528
204 1 1 20.1428 -5.8837 15.6058
205 1 -1 19.8152 -5.07837 15.133
206 1 -1 19.9911 -4.92374 16.0682
207 1 -1 19.3752 -4.6258 16.7144
208 1 -1 19.4409 -3.83713 16.2643
209 1 -1 19.0179 -3.57917 17.0438
210 1 -1 19.6823 -3.03291 17.3304
211 1 -1 20.5483 -2.67519 17.0631
212 1 -1 20.6776 -2.00926 16.4301
213 1 -1 20.5576 -1.74442 15.4773
214 1 -1 21.4269 -1.92968 15.0683
215 1 -1 21.4756 -0.933205 15.0626
216 1 -1 20.8167 -1.16526 14.3892
217 1 1 20.8946 -6.28497 -3.49961
218 1 1 20.1986 -6.27379 -2.894
219 1 1 20.7825 -6.6297 -2.23228
220 1 1 20.1609 -6.07818 -1.75814
221 1 1 19.8199 -6.20008 -0.86988
222 1 1 19.0815 -5.48155 -0.826574
223 1 1 18.6525 -5.71053 -0.0330764
224 1 1 18.7532 -4.85592 0.574591
225 1 1 19.3033 -5.03962 1.37392
226 1 1 20.1027 -5.60342 1.39521
227 1 1 19.4308 -5.7615 2.11049
228 1 1 18.6095 -5.24336 2.1366
229 1 -1 18.448 -5.45781 3.05762
230 1 -1 19.3276 -5.19921 3.46506
231 1 -1 18.6244 -4.8645 4.0484
232 1 -1 19.2879 -5.3626 4.65139
233 1 -1 19.6206 -5.65842 5.51366
234 1 -1 19.876 -5.4308 6.40961
235 1 -1 20.1834 -6.0898 7.11433
236 1 -1 19.9047 -6.67174 7.8602
237 1 -1 19.7288 -7.13286 8.68973
238 1 -1 18.8661 -6.71947 8.54256
239 1 -1 17.9874 -6.70808 8.88835
240 1 -1 17.9654 -6.09227 9.60482
241 1 1 19.9661 -7.87822 11.6191
242 1 1 19.2098 -8.27242 12.0558
243 1 1 18.2162 -8.13177 11.9007
244 1 1 18.035 -7.23237 12.0132
245 1 1 17.1735 -7.67605 11.7033
246 1 1 17.3607 -8.30641 12.4215
247 1 1 17.3988 -8.24846 13.4168
248 1 1 18.1255 -8.70906 13.9104
249 1 1 18.4209 -8.97799 13.0463
250 1 1 18.772 -9.85248 13.2157
251 1 1 19.0721 -9.39648 14.0636
252 1 1 19.5103 -9.66031 14.9097
253 1 -1 19.0375 -8.80868 14.9658
254 1 -1 19.6059 -8.90119 15.735
255 1 -1 19.0777 -8.37117 16.3339
256 1 -1 19.5588 -7.56243 16.2445
257 1 -1 19.3313 -6.72192 15.8245
258 1 -1 18.5757 -7.29659 15.5475
259 1 -1 18.1384 -6.74047 16.1728
260 1 -1 17.5095 -6.72816 15.4502
261 1 -1 16.993 -6.87526 14.6725
262 1 -1 16.5496 -7.00764 13.8719
263 1 -1 16.7539 -6.11127 13.6261
264 1 -1 16.1928 -5.78155 14.3393
265 1 1 19.8405 -4.02763 17.5203
266 1 1 20.801 -3.96812 17.5615
267 1 1 20.8989 -4.76306 16.9623
268 1 1 20.7308 -4.09009 16.3285
269 1 1 21.1823 -3.39139 16.7149
270 1 1 21.8108 -3.02548 15.9369
271 1 1 21.7516 -2.45933 16.7085
272 1 1 21.6188 -1.67544 16.2445
273 1 1 22.1996 -0.950559 15.9228
274 1 1 22.9146 -0.460899 16.5012
275 1 1 22.9534 -1.23742 16.9924
276 1 1 23.6891 -1.78864 16.9992
277 1 -1 23.5305 -1.4075 17.864
278 1 -1 24.1516 -2.12004 17.8873
279 1 -1 24.6772 -2.07735 16.9772
280 1 -1 25.0909 -2.76089 16.433
281 1 -1 24.4194 -3.10991 17.0322
282 1 -1 24.1067 -2.89958 16.1186
283 1 -1 23.1239 -3.10955 15.924
284 1 -1 22.6391 -2.30917 16.2018
285 1 -1 23.5975 -2.07816 16.0128
286 1 -1 23.4078 -1.20969 15.718
287 1 -1 23.1116 -0.347104 15.3642
288 1 -1 23.9968 -0.220562 15.6601
289 1 1 -15.9166 27.835 25.9142
290 1 1 -16.3967 27.185 26.4872
291 1 1 -16.6436 27.0107 25.629
292 1 1 -16.3756 27.3448 24.7536
293 1 1 -15.4685 27.6366 24.5955
294 1 1 -14.5195 27.7341 24.7286
295 1 1 -14.3417 26.7734 24.5095
296 1 1 -14.3891 26.4758 25.4888
297 1 1 -14.4327 25.5202 25.862
298 1 1 -14.7766 24.5993 25.549
299 1 1 -15.1105 23.7937 25.9862
300 1 1 -14.3908 23.2273 26.1651
301 1 -1 -15.0174 22.5106 26.1218
302 1 -1 -14.8282 21.8368 25.5632
303 1 -1 -14.8874 21.8783 24.5664
304 1 -1 -13.9462 21.7445 24.7493
305 1 -1 -13.2464 21.2168 25.0964
306 1 -1 -13.8736 20.6199 25.4528
307 1 -1 -12.9518 20.5858 25.7793
308 1 -1 -12.2003 20.9541 25.3174
309 1 -1 -12.574 20.4737 24.5695
310 1 -1 -12.0562 20.3759 23.8283
311 1 -1 -12.627 19.5121 23.8637
312 1 -1 -11.9231 19.2146 23.3017
313 1 1 -11.1892 19.7834 29.2322
314 1 1 -11.7387 20.4633 29.74
315 1 1 -11.1786 21.2202 29.3764
316 1 1 -10.7643 21.8182 28.7273
317 1 1 -10.9396 22.2501 29.5163
318 1 1 -11.3648 22.2208 30.4133
319 1 1 -11.8647 23.0202 30.5204
320 1 1 -12.7619 23.0269 30.0908
321 1 1 -13.6917 22.9423 29.987
322 1 1 -13.4903 23.5398 30.6808
323 1 1 -14.1947 24.1503 30.7644
324 1 1 -14.1122 23.9288 31.7259
325 1 -1 -13.5331 23.1837 32.0138
326 1 -1 -13.198 22.5097 32.5081
327 1 -1 -12.8075 21.7516 32.8705
328 1 -1 -12.1835 21.4414 32.2771
329 1 -1 -12.0079 22.3187 32.3606
330 1 -1 -11.8428 22.4279 31.4767
331 1 -1 -12.1054 21.6316 31.0715
332 1 -1 -12.3646 21.7586 30.1359
333 1 -1 -11.9508 22.3325 29.4414
334 1 -1 -12.0401 21.4802 28.9322
335 1 -1 -11.7625 20.6364 28.671
336 1 -1 -11.4059 20.435 27.818
337 1 1 16.0505 21.9916 20.0931
338 1 1 16.0239 21.3691 20.8698
339 1 1 16.4202 22.0257 21.4401
340 1 1 17.024 21.9321 20.667
341 1 1 17.6173 21.8817 21.3601
342 1 1 18.2621 21.2843 20.8827
343 1 1 18.7517 22.1036 20.918
344 1 1 18.2153 22.8862 21.1294
345 1 1 18.1639 23.4985 20.3881
346 1 1 17.3806 23.8713 20.7919
347 1 1 18.0089 24.438 21.2296
348 1 1 18.649 24.1238 21.8408
349 1 -1 19.6058 24.3299 21.9813
350 1 -1 19.0763 24.7405 22.6771
351 1 -1 19.4882 25.5292 22.989
352 1 -1 18.7049 26.2354 23.0757
353 1 -1 18.3219 27.0845 23.2509
354 1 -1 17.505 27.2537 23.6041
355 1 -1 16.7248 27.581 23.1495
356 1 -1 15.9973 27.2416 23.5908
357 1 -1 15.7513 28.0644 23.9435
358 1 -1 15.7476 28.9968 24.263
359 1 -1 16.4197 29.7076 23.9748
360 1 -1 17.3178 29.7828 23.5265
361 1 1 18.9086 20.7662 -8.30316
362 1 1 19.3529 21.5893 -8.00814
363 1 1 18.9546 22.1843 -7.30128
364 1 1 19.5523 21.9143 -6.65861
365 1 1 19.6702 22.821 -6.40968
366 1 1 18.8912 22.5954 -5.90804
367 1 1 18.1763 22.5955 -6.52299
368 1 1 18.0535 22.766 -7.45379
369 1 1 18.3079 23.6356 -7.11219
370 1 1 18.2279 24.5075 -6.73625
371 1 1 17.8644 24.8323 -7.56024
372 1 1 17.4058 25.2816 -8.40443
373 1 -1 17.8395 26.0635 -8.21295
374 1 -1 18.1726 25.8633 -7.34164
375 1 -1 18.5195 26.005 -6.49783
376 1 -1 19.4603 26.0225 -6.77532
377 1 -1 19.0249 25.1747 -6.97689
378 1 -1 19.3053 25.0246 -6.13223
379 1 -1 20.2636 25.0081 -5.79542
380 1 -1 20.6445 24.5244 -5.00628
381 1 -1 20.3701 23.7483 -4.61466
382 1 -1 19.5135 23.8204 -5.017
383 1 -1 18.9898 23.6721 -5.77439
384 1 -1 18.7072 23.0904 -4.99927
385 1 1 23.6006 22.9022 -13.2776
386 1 1 24.191 23.2716 -12.6114
387 1 1 23.5639 23.898 -12.9942
388 1 1 23.4797 24.4114 -13.8204
389 1 1 22.9148 24.7889 -13.1255
390 1 1 22.1631 25.2649 -12.7868
391 1 1 21.7508 26.0528 -12.4591
392 1 1 20.8799 26.581 -12.463
393 1 1 20.696 26.5057 -11.527
394 1 1 21.0985 27.2439 -11.1167
395 1 1 20.2234 27.5274 -10.7949
396 1 1 20.2741 28.0922 -11.5244
397 1 -1 20.6991 27.5302 -12.155
398 1 -1 19.8811 27.1857 -12.4873
399 1 -1 19.8947 26.269 -12.6968
400 1 -1 19.724 26.3582 -11.6921
401 1 -1 20.0193 25.8002 -11.0024
402 1 -1 19.6415 24.9338 -10.7843
403 1 -1 20.5705 25.0159 -10.9401
404 1 -1 21.1229 24.4149 -10.5583
405 1 -1 21.3663 24.1773 -11.5153
406 1 -1 21.2806 23.4193 -10.9635
407 1 -1 21.7989 22.9462 -10.2477
408 1 -1 22.6157 23.4191 -10.3179
409 1 1 21.4666 21.0384 14.373
410 1 1 21.6483 21.0925 15.3493
411 1 1 21.0246 20.9801 16.0854
412 1 1 20.4369 20.2092 16.3143
413 1 1 19.7782 19.9271 17.011
414 1 1 19.1839 19.4298 16.4382
415 1 1 19.0404 20.0012 15.6829
416 1 1 18.1217 20.2145 15.8007
417 1 1 18.5096 21.0702 15.6682
418 1 1 18.8554 21.5993 14.9339
419 1 1 18.2945 22.3668 14.9534
420 1 1 18.2294 22.9905 15.7186
421 1 -1 18.0557 22.0377 15.9236
422 1 -1 17.326 22.4174 15.5014
423 1 -1 17.1726 23.2983 15.1739
424 1 -1 16.8306 23.5565 14.3463
425 1 -1 17.5211 24.1787 14.3383
426 1 -1 18.2979 23.8943 14.8122
427 1 -1 18.5887 24.3531 13.9812
428 1 -1 18.4213 24.1899 13.0564
429 1 -1 18.0725 25.0563 13.2397
430 1 -1 17.1053 25.0846 12.7926
431 1 -1 16.3117 24.4712 12.6802
432 1 -1 15.4136 24.7712 12.8248
433 1 1 -12.0639 24.5109 -14.6506
434 1 1 -11.3556 24.6919 -14.0572
435 1 1 -11.2133 23.9229 -13.4323
436 1 1 -10.2904 23.7121 -13.1972
437 1 1 -10.8024 23.0686 -13.534
438 1 1 -10.915 22.5209 -14.2831
439 1 1 -11.6701 22.128 -13.8026
440 1 1 -11.7217 21.4334 -14.4334
441 1 1 -12.329 22.1649 -14.7047
442 1 1 -12.7042 21.5924 -14.0211
443 1 1 -13.5894 21.395 -14.3887
444 1 1 -13.1758 21.4828 -15.3031
445 1 -1 -12.5684 20.8824 -14.8529
446 1 -1 -12.7349 20.4225 -14.0366
447 1 -1 -13.6189 20.0347 -14.2394
448 1 -1 -13.4075 20.2738 -15.1586
449 1 -1 -14.3393 20.5516 -15.2183
450 1 -1 -14.6151 20.1639 -14.3901
451 1 -1 -14.4101 20.1957 -13.4494
452 1 -1 -14.5258 20.7972 -12.6731
453 1 -1 -15.2006 21.4312 -12.7102
454 1 -1 -15.3483 22.3978 -12.7278
455 1 -1 -14.5001 22.4709 -13.2951
456 1 -1 -14.4484 22.3018 -14.2241
457 1 1 -13.8398 27.941 28.3896
458 1 1 -13.7885 27.6491 27.5029
459 1 1 -14.4821 27.1072 27.7997
460 1 1 -14.5616 26.1189 27.7631
461 1 1 -14.7226 26.1096 26.7813
462 1 1 -15.426 25.618 27.2043
463 1 1 -14.9881 24.7758 27.5118
464 1 1 -15.2626 24.106 28.0735
465 1 1 -14.6868 23.6948 27.3676
466 1 1 -14.1491 23.6411 28.1589
467 1 1 -13.402 24.2598 28.3265
468 1 1 -13.524 24.0805 27.3802
469 1 -1 -13.9313 24.9061 27.5404
470 1 -1 -13.8624 25.5578 26.8386
471 1 -1 -13.5204 24.7158 26.4885
472 1 -1 -14.4273 24.4946 26.6803
473 1 -1 -15.3218 24.734 26.4446
474 1 -1 -16.1294 25.2028 26.549
475 1 -1 -16.403 25.154 25.6159
476 1 -1 -15.4321 25.429 25.7695
477 1 -1 -16.0207 26.1779 25.6126
478 1 -1 -15.3866 26.9574 25.4789
479 1 -1 -15.3164 26.8316 26.485
480 1 -1 -15.8457 26.651 27.3208
481 1 1 19.3251 24.8731 -4.78656
482 1 1 20.0393 25.5151 -4.88562
483 1 1 19.1918 25.7826 -5.25208
484 1 1 19.6882 26.518 -5.78318
485 1 1 20.4237 26.5963 -5.12604
486 1 1 20.8306 25.8488 -5.48595
487 1 1 21.1102 25.7424 -4.56883
488 1 1 21.2049 26.6584 -4.46032
489 1 1 21.188 26.9825 -3.48533
490 1 1 20.2037 26.9219 -3.4101
491 1 1 20.3539 27.2211 -2.43419
492 1 1 19.6251 26.865 -1.89019
493 1 -1 18.7653 27.0773 -2.2814
494 1 -1 19.3236 27.848 -2.05612
495 1 -1 19.576 27.8325 -2.96889
496 1 -1 19.2474 27.5916 -3.82202
497 1 -1 19.1422 26.7562 -3.2874
498 1 -1 19.3204 26.5839 -4.26575
499 1 -1 18.4627 26.5165 -4.66029
500 1 -1 17.8252 26.9519 -5.21527
501 1 -1 18.5581 27.1545 -5.82973
502 1 -1 17.5806 27.3864 -6.12005
503 1 -1 18.1667 28.0738 -5.96477
504 1 -1 18.3581 28.6628 -5.31557
505 1 1 18.4708 25.0542 -2.65329
506 1 1 18.6674 24.5731 -1.76176
507 1 1 19.5121 24.9452 -1.60855
508 1 1 19.6772 24.0016 -1.39453
509 1 1 19.6841 23.5494 -0.520635
510 1 1 19.3702 23.7435 0.330968
511 1 1 20.3511 23.4349 0.41285
512 1 1 20.8206 24.1611 0.0710364
513 1 1 21.2639 23.9851 -0.786551
514 1 1 21.8052 24.7358 -0.944252
515 1 1 22.0927 25.3461 -1.64572
516 1 1 22.4501 25.7489 -2.42831
517 1 -1 21.6818 25.2415 -2.69356
518 1 -1 22.446 24.7497 -2.89741
519 1 -1 21.9981 24.0768 -2.39014
520 1 -1 21.229 24.2302 -1.80223
521 1 -1 20.2565 24.3622 -2.17711
522 1 -1 20.5957 23.5011 -2.29117
523 1 -1 19.7404 23.4124 -2.63459
524 1 -1 19.1406 24.1116 -2.48965
525 1 -1 19.5982 24.8271 -2.95181
526 1 -1 19.8603 25.3488 -3.73394
527 1 -1 19.2609 25.813 -3.22095
528 1 -1 18.8973 25.6113 -4.18461
529 1 1 17.2092 21.6983 16.7051
530 1 1 17.1334 22.5867 16.4618
531 1 1 16.1619 22.3409 16.4888
532 1 1 16.2583 22.8374 17.2946
533 1 1 17.1348 23.1224 17.5276
534 1 1 17.8959 23.2939 18.0165
535 1 1 17.359 23.9624 18.3912
536 1 1 17.8955 24.2289 17.6437
537 1 1 18.8212 24.3138 17.3483
538 1 1 18.2267 24.2685 16.6087
539 1 1 17.6162 24.1185 15.836
540 1 1 16.7655 24.5165 15.5586
541 1 -1 15.8859 24.2674 15.6944
542 1 -1 15.8321 24.9341 16.5145
543 1 -1 16.4566 25.3751 17.1114
544 1 -1 16.7941 24.6055 17.7068
545 1 -1 17.4963 25.0735 18.1536
546 1 -1 18.2576 24.6072 18.5337
547 1 -1 18.6873 23.784 18.2754
548 1 -1 19.6297 23.9486 18.1656
549 1 -1 20.1169 23.3144 17.6938
550 1 -1 19.2907 23.2254 17.1896
551 1 -1 18.715 22.4619 17.4386
552 1 -1 18.1872 23.2326 17.0267
553 1 1 23.7974 22.2873 14.4346
554 1 1 23.2814 22.667 13.6744
555 1 1 22.2854 22.9055 13.4539
556 1 1 21.785 23.2185 14.1915
557 1 1 21.6756 23.0722 15.1747
558 1 1 21 22.9544 15.7678
559 1 1 20.7829 23.7721 16.1777
560 1 1 20.8892 23.6085 17.0962
561 1 1 20.4373 22.7899 16.8105
562 1 1 20.6535 21.9354 16.5587
563 1 1 21.3936 21.578 17.0708
564 1 1 22.1524 21.2718 17.5886
565 1 -1 22.64 21.2291 16.724
566 1 -1 22.3214 22.1602 16.7262
567 1 -1 21.9284 22.1889 15.9131
568 1 -1 21.2161 22.0777 15.1892
569 1 -1 20.3286 21.9265 15.4899
570 1 -1 19.4943 21.8347 16.0689
571 1 -1 19.5235 20.8813 15.9998
572 1 -1 20.1707 20.8479 15.2134
573 1 -1 20.1779 21.4605 14.5079
574 1 -1 20.2154 22.2472 13.963
575 1 -1 20.6014 22.8478 14.6636
576 1 -1 21.2082 22.3807 14.0047
577 1 1 -10.2374 22.7941 23.2447
578 1 1 -11.0277 22.9804 22.6567
579 1 1 -11.2544 23.6994 22.1009
580 1 1 -11.5227 24.6001 22.4733
581 1 1 -11.622 25.5415 22.1145
582 1 1 -12.0383 26.2917 22.5339
583 1 1 -11.7603 27.269 22.6782
584 1 1 -12.7257 27.1477 22.4351
585 1 1 -12.6775 27.8598 21.7373
586 1 1 -12.2689 28.6168 21.3023
587 1 1 -13.2284 28.594 21.1522
588 1 1 -13.4715 28.8615 20.2443
589 1 -1 -12.5172 29.207 20.1602
590 1 -1 -12.5293 28.333 19.7685
591 1 -1 -11.7688 28.9231 19.4918
592 1 -1 -11.2215 28.9959 20.3075
593 1 -1 -11.0177 28.4554 21.067
594 1 -1 -10.1487 28.3644 21.3449
595 1 -1 -9.83948 27.5225 20.948
596 1 -1 -9.69778 26.7712 20.3153
597 1 -1 -9.98656 26.0102 20.8342
598 1 -1 -9.07168 26.0543 20.8116
599 1 -1 -9.17216 25.3133 21.424
600 1 -1 -9.52665 24.4262 21.6384
601 1 1 -11.8784 21.636 21.0333
602 1 1 -11.4367 21.9445 21.8374
603 1 1 -11.3154 22.5081 21.0988
604 1 1 -10.9132 22.3074 20.22
605 1 1 -11.4917 21.58 19.9876
606 1 1 -12.4396 21.5395 20.1993
607 1 1 -12.089 20.6158 19.9062
608 1 1 -12.2878 20.0459 19.1418
609 1 1 -13.1926 20.2598 19.1312
610 1 1 -12.906 19.7816 19.942
611 1 1 -13.5804 19.8521 20.634
612 1 1 -13.8288 20.4804 19.9334
613 1 -1 -13.3936 21.3493 19.9101
614 1 -1 -12.8362 21.4576 19.1936
615 1 -1 -12.0277 21.037 18.829
616 1 -1 -11.2607 20.4825 18.5311
617 1 -1 -10.8308 20.7797 17.7378
618 1 -1 -10.5213 21.544 18.2702
619 1 -1 -11.0862 21.367 19.0413
620 1 -1 -10.4118 21.3881 19.6674
621 1 -1 -10.4214 21.3945 20.6505
622 1 -1 -10.1157 21.6451 21.4994
623 1 -1 -9.31786 21.5167 20.8113
624 1 -1 -8.36149 21.5508 20.5718
625 1 1 19.5726 23.6985 14.3191
626 1 1 20.1844 24.3426 14.2095
627 1 1 20.7775 23.6141 14.0418
628 1 1 21.4613 24.0571 13.5552
629 1 1 22.2018 24.3806 13.0699
630 1 1 21.858 24.8892 12.2883
631 1 1 21.4298 25.4479 12.9138
632 1 1 21.3297 26.3985 12.9961
633 1 1 21.22 27.0752 13.669
634 1 1 20.3466 27.3152 13.9984
635 1 1 20.3583 26.4376 13.5373
636 1 1 20.3742 25.4179 13.5919
637 1 -1 19.7274 24.6781 13.3729
638 1 -1 19.4084 23.8576 13.0937
639 1 -1 20.1943 23.4279 12.6209
640 1 -1 21.1543 23.3244 12.8925
641 1 -1 21.9178 22.9252 12.536
642 1 -1 21.4927 23.1549 11.6954
643 1 -1 21.2255 24.0804 12.0357
644 1 -1 20.6499 24.5183 12.6238
645 1 -1 20.3429 25.4042 12.5533
646 1 -1 21.0157 25.7831 11.9222
647 1 -1 20.5428 26.6339 12.3096
648 1 -1 20.6609 27.5152 11.9762
649 1 1 18.6696 26.9492 -6.95367
650 1 1 19.0666 26.7828 -7.79023
651 1 1 19.6969 26.8237 -8.49551
652 1 1 20.1292 27.5936 -8.15268
653 1 1 20.4357 27.3986 -7.19938
654 1 1 20.8403 26.6156 -6.84375
655 1 1 21.4576 25.89 -6.70282
656 1 1 22.4077 25.7356 -6.74009
657 1 1 22.2851 26.683 -6.59868
658 1 1 22.5436 27.5722 -6.92722
659 1 1 22.4101 28.4568 -6.7634
660 1 1 22.8321 28.3727 -5.95114
661 1 -1 23.0305 29.1244 -6.52663
662 1 -1 23.0072 30.0916 -6.32791
663 1 -1 22.1785 29.7562 -6.05842
664 1 -1 21.6696 29.375 -6.75554
665 1 -1 20.9032 29.8365 -6.35583
666 1 -1 20.1022 29.384 -6.15058
667 1 -1 20.107 28.95 -5.32229
668 1 -1 20.1298 27.9825 -5.6693
669 1 -1 20.8089 27.6206 -6.25759
670 1 -1 21.5202 27.6785 -6.83563
671 1 -1 21.9438 27.7057 -7.69333
672 1 -1 22.7517 28.2259 -7.77705
673 1 1 23.7684 28.244 24.7891
674 1 1 23.7338 28.4533 23.8408
675 1 1 23.1465 29.0586 23.38
676 1 1 22.5021 29.6665 23.6478
677 1 1 22.3819 29.4847 24.603
678 1 1 21.5155 29.8489 24.2215
679 1 1 21.7035 30.3522 25.0237
680 1 1 22.3164 31.037 25.3577
681 1 1 22.8997 31.581 24.8217
682 1 1 23.1 31.6901 23.8455
683 1 1 23.6947 30.9731 24.1692
684 1 1 22.9306 30.7088 23.5768
685 1 -1 22.5164 30.2662 22.8317
686 1 -1 22.1183 30.2981 21.9683
687 1 -1 22.5543 29.424 21.758
688 1 -1 23.3554 29.2718 22.4132
689 1 -1 23.704 30.0227 22.9019
690 1 -1 23.7854 29.6977 23.8195
691 1 -1 23.2097 30.0179 24.4874
692 1 -1 22.3805 30.5543 24.3141
693 1 -1 21.8242 30.9365 23.5736
694 1 -1 21.673 31.5617 24.2552
695 1 -1 20.9955 30.8403 24.3069
696 1 -1 20.4277 30.6253 25.0566
697 1 1 24.9036 24.8465 17.1688
698 1 1 25.8514 24.5733 17.1365
699 1 1 26.1542 23.5853 17.1451
700 1 1 25.2236 23.4093 17.1316
701 1 1 24.9751 22.5152 17.3943
702 1 1 24.5303 22.09 16.6439
703 1 1 24.2038 22.9538 16.5682
704 1 1 23.3134 22.7843 16.8813
705 1 1 22.7606 22.932 16.1202
706 1 1 23.2989 23.7855 16.2664
707 1 1 23.0418 24.5686 16.6779
708 1 1 23.8203 25.1337 16.9001
709 1 -1 23.1601 25.8575 16.8926
710 1 -1 23.0924 26.8224 17.2306
711 1 -1 23.0074 27.7444 16.9146
712 1 -1 22.5373 28.6088 16.8104
713 1 -1 21.8721 28.677 17.5039
714 1 -1 21.8584 27.7719 17.2986
715 1 -1 21.6193 27.0449 17.8976
716 1 -1 21.9954 26.2656 18.2806
717 1 -1 22.8905 26.3234 18.0425
718 1 -1 23.5237 26.7578 18.6559
719 1 -1 23.0949 26.4791 19.5651
720 1 -1 22.4634 26.8663 18.9981
721 1 1 -12.4329 29.9005 24.8982
722 1 1 -11.8189 29.8996 24.1738
723 1 1 -12.2337 30.7152 23.7246
724 1 1 -11.8335 31.4135 23.2796
725 1 1 -11.3873 30.5843 23.0886
726 1 1 -11.8486 31.0441 22.2484
727 1 1 -11.4688 31.4715 21.4343
728 1 1 -12.0696 30.8444 21.0793
729 1 1 -12.9993 30.6427 21.3363
730 1 1 -13.5842 29.8396 21.1203
731 1 1 -14.4961 29.8607 21.34
732 1 1 -15.1147 29.0706 21.5657
733 1 -1 -15.9766 28.6141 21.8511
734 1 -1 -15.4223 27.9775 21.1587
735 1 -1 -14.9001 27.7981 20.414
736 1 -1 -15.4588 27.0683 20.6828
737 1 -1 -14.9345 26.2586 20.6576
738 1 -1 -15.8351 26.0284 20.9436
739 1 -1 -15.7104 25.8252 20.006
740 1 -1 -15.8487 24.9644 19.6749
741 1 -1 -15.1201 24.6263 19.1627
742 1 -1 -14.4886 24.29 19.8134
743 1 -1 -15.3148 23.8715 19.7821
744 1 -1 -14.6126 23.1177 19.7165
745 1 1 25.8361 29.0297 15.4433
746 1 1 26.4362 28.2756 15.3523
747 1 1 26.135 27.3678 15.7998
748 1 1 25.458 27.7243 15.0859
749 1 1 25.6832 26.737 15.136
750 1 1 25.8704 26.4509 14.2323
751 1 1 25.0777 27.0387 14.3703
752 1 1 24.4399 27.1702 15.0453
753 1 1 24.457 28.0292 14.6262
754 1 1 24.9215 28.8037 15.0042
755 1 1 24.7563 29.7512 14.9697
756 1 1 23.814 29.8396 14.8158
757 1 -1 23.9455 28.8798 14.9964
758 1 -1 23.4961 28.0853 15.2357
759 1 -1 23.2382 27.1767 15.2874
760 1 -1 23.9411 26.6108 15.6663
761 1 -1 24.915 26.2404 15.6638
762 1 -1 24.4945 25.721 14.9406
763 1 -1 24.9239 26.0946 14.1819
764 1 -1 25.3084 26.2454 13.32
765 1 -1 25.4607 27.173 13.1734
766 1 -1 25.7527 27.7767 13.8931
767 1 -1 26.0165 28.5829 14.3725
768 1 -1 27.0627 28.618 14.233
769 1 1 18.1055 29.4434 11.3039
770 1 1 18.7466 29.9773 11.7344
771 1 1 18.9663 28.9784 11.4738
772 1 1 19.6609 29.1254 12.1045
773 1 1 19.3448 28.2825 12.4141
774 1 1 18.5931 28.8453 12.4068
775 1 1 18.3389 27.921 12.1342
776 1 1 17.5168 27.6736 12.5536
777 1 1 18.1837 28.136 13.145
778 1 1 17.9819 27.3522 13.649
779 1 1 18.912 27.7976 13.6225
780 1 1 18.8987 28.5188 14.2118
781 1 -1 19.6528 27.9951 14.3482
782 1 -1 19.5246 28.5441 15.1136
783 1 -1 19.2313 29.3921 15.3627
784 1 -1 18.3598 28.9094 15.1882
785 1 -1 18.6464 27.9842 15.2464
786 1 -1 18.6536 27.3053 14.4692
787 1 -1 19.4022 26.67 14.1802
788 1 -1 18.5128 26.2497 14.1134
789 1 -1 18.1423 26.1553 13.185
790 1 -1 17.6091 26.5191 12.4861
791 1 -1 17.1115 26.9964 11.8954
792 1 -1 16.6102 26.2555 11.6229
793 1 1 24.5036 30.0755 19.5354
794 1 1 24.3025 29.2519 19.929
795 1 1 23.4048 29.5686 19.8994
796 1 1 23.6383 30.4405 20.2688
797 1 1 23.1744 30.7226 21.0096
798 1 1 23.4693 30.116 21.7893
799 1 1 22.9862 30.9459 22.0869
800 1 1 22.8578 31.716 22.6476
801 1 1 21.9181 31.7695 23.0195
802 1 1 21.3087 32.4624 23.072
803 1 1 21.0552 31.9821 22.2427
804 1 1 20.1267 32.2215 22.123
805 1 -1 20.4125 32.9525 21.6581
806 1 -1 20.5821 32.7483 20.7287
807 1 -1 19.8988 31.9869 20.7889
808 1 -1 20.0237 31.3768 20.1143
809 1 -1 19.1728 31.2708 20.4457
810 1 -1 19.4739 30.3536 20.3006
811 1 -1 20.0609 29.8511 20.8986
812 1 -1 20.3478 30.0065 21.746
813 1 -1 21.1616 30.0693 22.32
814 1 -1 21.3096 31.0147 22.1175
815 1 -1 21.8056 31.6285 21.4989
816 1 -1 22.2092 32.315 22.0764
817 2 1 -8.71441 -7.27682 22.373
818 2 1 -8.33628 -8.06512 21.9654
819 2 1 -7.74534 -8.26458 22.6219
820 2 1 -8.55011 -8.71594 22.8383
821 2 1 -7.97465 -9.13729 23.4592
822 2 1 -7.52589 -8.48949 23.9532
823 2 1 -6.79412 -9.08181 24.2172
824 2 1 -5.82256 -8.82421 24.1999
825 2 1 -6.27538 -8.03334 24.4425
826 2 1 -6.47744 -7.35135 23.704
827 2 1 -6.30349 -6.54936 23.1954
828 2 1 -6.55014 -5.6079 23.3428
829 2 -1 -5.80513 -5.32611 22.7655
830 2 -1 -5.81651 -5.7493 21.8891
831 2 -1 -5.83714 -6.71365 22.2457
832 2 -1 -6.73371 -6.64124 22.0937
833 2 -1 -7.34283 -7.13246 22.6774
834 2 -1 -8.04609 -7.04013 23.2801
835 2 -1 -8.26059 -7.91122 23.5439
836 2 -1 -8.6447 -7.92321 24.3972
837 2 -1 -8.69607 -8.74903 24.0068
838 2 -1 -8.62749 -9.60438 24.4416
839 2 -1 -7.83135 -9.45301 24.92
840 2 -1 -6.938 -9.66238 25.194
841 2 1 21.8846 -0.308494 14.022
842 2 1 22.162 -1.29212 14.0291
843 2 1 22.9195 -0.904901 14.5517
844 2 1 22.6741 -1.61524 15.1122
845 2 1 22.9069 -2.58303 15.0129
846 2 1 22.2306 -2.58725 14.3743
847 2 1 21.3593 -2.4492 14.0816
848 2 1 20.4438 -2.79391 14.0539
849 2 1 19.543 -2.52178 14.1571
850 2 1 19.7422 -1.85509 14.7856
851 2 1 18.9918 -1.33291 14.5594
852 2 1 18.8681 -1.57922 15.5136
853 2 -1 18.4809 -2.21799 16.0801
854 2 -1 18.6503 -1.29493 16.5174
855 2 -1 19.2321 -1.06878 17.2807
856 2 -1 19.9363 -1.06833 16.6223
857 2 -1 20.8073 -0.940905 16.3686
858 2 -1 21.2595 -0.622022 17.1109
859 2 -1 21.1933 -0.543141 18.0672
860 2 -1 21.1748 -1.33285 18.6758
861 2 -1 21.165 -2.27162 18.947
862 2 -1 20.2996 -2.34117 18.4198
863 2 -1 20.6952 -3.15198 18.075
864 2 -1 19.8662 -3.40074 18.5541
865 2 1 15.4627 -12.2248 22.162
866 2 1 16.3579 -12.1537 22.5756
867 2 1 17.0077 -11.5299 22.8071
868 2 1 17.8832 -11.925 22.97
869 2 1 17.6611 -11.9184 22.0303
870 2 1 18.1948 -12.7059 22.062
871 2 1 18.9922 -12.6399 22.6303
872 2 1 19.6784 -11.9952 22.6546
873 2 1 20.5188 -11.5342 22.7884
874 2 1 19.8187 -10.9385 22.5798
875 2 1 19.2798 -10.6064 21.8926
876 2 1 18.3583 -10.9769 21.8329
877 2 -1 18.8117 -11.606 22.3989
878 2 -1 18.7373 -11.9705 21.5883
879 2 -1 19.041 -11.3632 20.9693
880 2 -1 19.5544 -12.2245 20.8486
881 2 -1 20.0047 -12.4659 21.6501
882 2 -1 19.8316 -11.543 21.7509
883 2 -1 20.2756 -11.402 20.9502
884 2 -1 21.0199 -11.4623 20.2461
885 2 -1 22.0353 -11.5984 20.0988
886 2 -1 22.6014 -10.8822 19.8038
887 2 -1 23.0168 -11.7227 19.5913
888 2 -1 23.8165 -11.1404 19.7089
889 2 1 23.0828 -7.40166 28.1597
890 2 1 22.7166 -7.55219 27.2374
891 2 1 23.6811 -7.55233 27.1924
892 2 1 24.1864 -7.6024 26.4054
893 2 1 24.9466 -7.41944 26.8902
894 2 1 24.5119 -6.53309 26.8071
895 2 1 24.9314 -5.75906 26.4514
896 2 1 24.3908 -4.9618 26.3931
897 2 1 23.8037 -5.78732 26.3334
898 2 1 22.8368 -5.71803 26.5077
899 2 1 22.3525 -5.66192 27.3395
900 2 1 22.14 -6.57065 27.4301
901 2 -1 21.7966 -6.69567 28.2864
902 2 -1 21.9893 -5.73826 28.2616
903 2 -1 21.5389 -5.7232 29.1372
904 2 -1 21.2336 -5.61439 30.0321