LAMMPS data file via write_data, version 27 Jun 2024, timestep = 100000, units = lj

3264 atoms
2 atom types
3162 bonds
1 bond types

0 32 xlo xhi
0 32 ylo yhi
0 32 zlo zhi

Masses

1 1
2 1

Pair Coeffs # lj/cut

1 1 1
2 1 1

Bond Coeffs # fene

1 30 1.5 1 1

Atoms # molecular

2396 75 2 9.949373340264163 1.2353039734203317 0.3712100268287666 0 0 1
2394 75 2 10.577003332584166 1.85977598060135 1.3524297834334795 0 0 1
2846 89 2 11.3062094363244 2.0919300806333823 0.5087111815063207 0 0 1
2848 89 2 11.553677689397519 0.31800047964609024 0.6242003876125161 0 0 1
2847 89 2 11.161368428608066 1.1809922018742502 0.31685641389313024 0 0 1
2858 90 2 12.517176209703607 0.9811284374016792 1.4384899988413011 0 0 1
2339 74 2 12.70494463529504 0.5172570901895921 31.992687517561613 0 0 0
2338 74 2 12.600727383234336 0.18854994271057574 0.8755436361663644 0 0 1
2337 74 2 12.312681048611537 31.81610430616617 1.7914289577111053 0 -1 1
2343 74 2 13.912253349666443 2.3038396408530293 0.4741795450040579 0 0 1
1528 48 1 16.142724677557297 1.0576039708554228 0.05161776644645348 0 0 0
1527 48 1 16.99941438482583 1.4239472925314451 31.747562823583927 0 0 -1
3168 99 2 14.04584382576601 31.71486727486952 1.6357206572689096 0 -1 1
1504 47 1 6.633201966549802 3.1963691155627534 0.15577423377682492 0 0 0
1499 47 1 8.634008271215619 2.1185838568050426 0.35331746304866934 0 0 0
1498 47 1 8.341453761341441 2.7405649576069817 1.0473405349761573 0 0 0
1500 47 1 7.863172714104288 1.8547717568754558 0.7894074882516386 0 0 0
2395 75 2 9.626457633836244 1.6939733925522975 1.1017714619060743 0 0 1
2400 75 2 9.169251679077405 2.0300330525743804 30.11678735589374 0 0 0
2845 89 2 10.361996705682467 2.269500531384752 0.43150422107423875 0 0 1
2340 74 2 12.129487927346668 1.2810091776473242 31.94495581743736 0 0 0
2856 90 2 12.614390391200628 2.1079520857092047 1.0327947525621919 0 0 1
2341 74 2 12.989647364787974 1.4406816931755955 0.3673564758759702 0 0 1
2342 74 2 13.102389845860312 2.376081529738261 31.94018069021299 0 0 0
1530 48 1 15.404074510071041 1.508056305848249 31.398072870797446 0 0 -1
2344 74 2 14.593752558695138 2.774502184866522 0.937930375773879 0 0 1
2345 74 2 15.23974944833224 2.558009151526324 1.6359959272730111 0 0 1
3162 99 2 16.141615049049978 0.40166625640813763 3.225593947388155 0 0 1
3161 99 2 16.74409301427717 0.37377828850826306 2.4326924377232744 0 0 1
1524 48 1 16.252940936303215 1.100418194344004 1.6578738487020417 0 0 0
1523 48 1 16.071803074008873 1.901036183390522 1.1676518181463398 0 0 0
1505 48 1 18.769651223351847 1.063215860916745 3.007064052701947 0 0 0
1261 40 1 18.734359074409202 2.8004019717601882 1.4042088805312316 0 0 0
3101 97 2 7.122741439834423 4.286231430702671 0.22051823357915823 0 0 1
3100 97 2 7.665098719171715 3.5290993980880225 0.33342003419037014 0 0 1
1503 47 1 6.550906098452778 2.4379580529487037 0.6733476181800137 0 0 0
1502 47 1 6.778980741840697 1.671518486240882 1.2441459170471005 0 0 0
3099 97 2 8.058190648005295 4.3638125025008 0.641837439321287 0 0 1
3108 98 2 9.274750194768968 3.740518626823369 0.26906997126090587 0 0 1
1497 47 1 9.332586559966611 2.7418021623359397 0.784778090782518 0 0 0
2842 89 2 10.570317537210913 3.6023933020313215 0.7324022959474906 0 0 1
2399 75 2 8.438655457655859 2.1867002122300017 30.689067121518146 0 0 0
2849 90 2 11.73453808558963 2.7273437123898856 31.805619117408053 0 0 0
2753 87 2 11.569997191041008 3.9358085865032804 1.4339598021956554 0 0 1
2850 90 2 11.631069410175353 3.01987654808637 0.746889390642675 0 0 1
1664 52 2 13.067613120316665 2.9013229433394394 30.79798621103131 -1 0 0
1663 52 2 13.85165970543322 3.601729545243287 30.78579424493351 -1 0 0
1659 52 2 13.172737751377507 3.1859772022700503 1.276575630374537 -1 0 1
2801 88 2 14.05365752000868 3.8695425149656564 0.923518117869836 0 0 1
2800 88 2 14.625205802499663 3.7887972268700674 1.7544465424057973 0 0 1
3154 99 2 14.875835047335094 4.156176386665392 0.2545133727318481 0 0 1
3155 99 2 15.267292990088531 3.5271702456338367 0.8930379971723811 0 0 1
1518 48 1 16.54914709811734 4.020717357372817 0.4213108719964964 0 0 0
3158 99 2 16.608920330962093 2.482207570029791 1.8436500113522702 0 0 1
3156 99 2 15.818429494526999 3.62908117610382 1.7269863093721907 0 0 1
3157 99 2 16.32377708684138 3.069879052469336 1.0638531818915218 0 0 1
1254 40 1 17.313407797394945 3.058853065355394 0.5803561858825123 0 0 0
2117 67 2 17.891081777971202 3.727146736343735 1.9524305557513972 0 0 1
1255 40 1 17.722400369578978 2.190884419619013 0.7319798620185174 0 0 0
2116 67 2 17.93051344514536 4.5373448454412895 1.3230969920073121 0 0 1
1260 40 1 18.438951196310715 3.6992426790351054 1.130291010830215 0 0 0
3102 97 2 6.321233073805804 4.480086309637963 31.736769586784717 0 0 0
3103 97 2 6.046658981786625 5.362199534301295 31.30431541715919 0 0 0
3133 98 2 5.305786850831832 4.934138993037938 0.8146274990106033 0 0 1
2713 85 2 7.017877658432378 5.6351038350348075 0.44140220378759526 0 0 1
2714 85 2 7.502057667895742 5.160141127056003 1.1988419922427938 0 0 1
3131 98 2 6.286972185294062 4.072605345312938 0.8274571823637829 0 0 1
3098 97 2 8.681121237723277 3.7935897407239034 1.0413934300678818 0 0 1
3097 97 2 9.259557132751576 4.566375849621573 0.931307475285897 0 0 1
3052 96 2 8.296109716935797 5.499849933481745 0.3858110748409135 0 0 1
3107 98 2 9.187909091264068 3.7215924948153996 31.36106284452005 0 0 0
2755 87 2 10.30275903070589 4.712966049140958 1.3026363117775213 0 0 1
2756 87 2 9.986990381384366 4.810287885118972 0.3132973891479646 0 0 1
3053 96 2 7.9286821719919915 6.1257997104973905 1.1159836887881802 0 0 1
3054 96 2 8.904221044310603 5.950672617706311 1.3410860811954317 0 0 1
2758 87 2 11.031720980994331 5.30272852171781 0.0677696763442353 0 0 1
2754 87 2 11.127946368256335 4.583708951201661 0.9072038092554147 0 0 1
2870 90 2 12.92637888311034 4.409902303034467 1.5172848104847003 0 0 1
3146 99 2 11.984286961277217 4.125803498359785 0.16540410576983483 0 0 1
1661 52 2 13.106909564985642 4.04155401318499 0.42294993079452975 -1 0 1
2872 90 2 12.74680168059487 5.549852531503702 1.6109218368638218 0 0 1
3147 99 2 12.538999547672113 3.497650188112311 31.649816936623054 0 0 0
2802 88 2 13.803154950417639 4.813274028967691 1.018293321874007 0 0 1
2803 88 2 13.823662251711792 5.374424940814268 0.22993124628649128 0 0 1
2892 91 2 15.363650329966243 4.476464125644104 1.3091630200371285 0 0 1
2893 91 2 15.295495215085786 5.35993696282919 1.177563285751208 0 0 1
2894 91 2 15.965495700079003 5.269065304836585 0.5825950494436667 0 0 1
1516 48 1 17.151450729028646 3.726051251080484 1.2569163339271727 0 0 0
1517 48 1 16.45563769889905 4.414436877720717 1.276533909583728 0 0 0
2115 67 2 18.766071688868564 4.801089327929093 1.0685072779363685 0 0 1
2366 74 2 17.448103354198825 5.613442621325827 2.3613787281632894 0 0 1
2114 67 2 19.40001764964292 5.013256867921228 0.40851996186085093 0 0 1
2113 67 2 19.194904238075342 5.789892124333664 0.8750036289746465 0 0 1
3136 98 2 3.8540978159817434 6.736512093929052 0.1843132580538339 0 0 1
2707 85 2 4.718688374297883 6.244667818475071 31.922073139431692 0 0 0
2706 85 2 5.5570509098561764 6.72128646618482 0.2543977480606454 0 0 1
2712 85 2 6.5449743206831155 6.175244861257105 31.76975235233736 0 0 0
2461 77 2 6.590252818644941 6.740795144121128 0.833667024372297 0 0 1
1145 36 1 6.817916618787233 7.286010080606429 31.791282666005642 0 0 -1
2439 77 2 8.616002490747757 7.593816185195336 31.770509090960424 0 0 0
2440 77 2 8.113071895483923 7.959942715218198 0.4802812395524687 0 0 1
2715 85 2 7.49478332396983 5.553576706302807 2.1112844314791057 0 0 1
3055 96 2 9.315374805985623 6.161377070978246 0.4627181140813341 0 0 1
2763 87 2 8.625870504931848 6.708036484183807 1.8067826642821914 0 0 1
2762 87 2 9.092493889079623 7.082893861372536 1.0562476409998802 0 0 1
2806 88 2 11.214517427135384 6.350083867177809 0.2985755811595464 0 0 1
2871 90 2 12.391110317929376 4.872393971948934 0.9347222818801784 0 0 1
2760 87 2 10.065122005643639 5.7597811838411355 1.3225652350576391 0 0 1
2759 87 2 10.917815851839306 5.581906383756495 0.9555998326885703 0 0 1
2805 88 2 12.029125386970568 5.872559384700493 0.49883219625562114 0 0 1
2804 88 2 12.993899071277111 5.62142448703158 0.5485594282427082 0 0 1
2875 90 2 13.79400892879426 6.439090749470956 0.2999427427397061 0 0 1
2876 90 2 13.11981041146795 6.5176816931606965 0.9379819192309898 0 0 1
2903 91 2 14.805975154312826 6.799640386967575 0.6626482367380717 0 0 1
2897 91 2 15.415190366265724 6.443805480054391 0.0005122767253803282 0 0 1
1450 46 1 17.44899964289927 6.452324994471091 1.6007586461009793 0 0 0
1448 46 1 16.433986456681946 7.382426566125144 1.9127189904882216 0 0 0
2899 91 2 16.545609411283944 7.1558776743656916 0.7926466874737581 0 0 1
2898 91 2 16.304564878137697 6.367143405400319 0.2820868061043656 0 0 1
1453 46 1 18.561579463907062 6.5323312885929115 0.07420899267753958 0 0 0
1452 46 1 18.155209712803323 6.488046076258076 0.9261867110220509 0 0 0
1458 46 1 19.610302578660495 7.6864308350183865 30.956317172732287 0 0 -1
1459 46 1 19.440091879737185 7.444976814374794 31.829108249801912 0 0 -1
1457 46 1 19.716102512244642 6.852628047457426 30.50194349128483 0 0 -1
1538 49 1 3.8910784274801777 8.447945183461375 31.53214206028047 0 0 -1
2458 77 2 5.857896147295423 7.688758438316391 0.15714110173019866 0 0 1
1537 49 1 2.943873922178849 8.341606517359551 31.452358993207035 0 0 -1
2456 77 2 5.074511044610552 8.498088284074866 0.36577484089949175 0 0 1
2457 77 2 5.235083870297632 8.133986456731277 31.520664882279803 0 0 0
1143 36 1 6.513245424020079 7.799236142856387 30.556346937401354 0 0 -1
2460 77 2 7.006250568475777 7.610708238728395 0.7647267185472996 0 0 1
803 26 1 6.186003057645402 8.68533481599353 0.5923370453789787 0 0 0
1144 36 1 6.392853475722094 8.156148159146273 31.447728426772105 0 0 -1
3039 95 2 7.661120493917991 8.313598723628775 1.3753838333694803 0 0 1
3040 95 2 8.638963525857823 8.22654400146999 1.5237720016460692 0 0 1
3036 95 2 8.840850242098227 8.893602137089028 0.2047085082877738 0 0 1
3058 96 2 10.197825245018212 7.876537563278575 0.369663419977504 0 0 1
3034 95 2 9.781114007789474 7.880162604001465 1.2730584885996457 0 0 1
3059 96 2 10.689884909537463 7.278081571534606 0.9257146480668682 0 0 1
1169 37 1 12.513267536690647 7.0460231184548565 0.3136785820170282 0 0 0
3060 96 2 11.23344881900583 8.048000251109787 0.7231865151536242 0 0 1
2807 88 2 11.606809451078874 6.962827196813355 31.741605924257254 0 0 0
3061 96 2 11.784822379265139 7.370169584987468 1.060390598727813 0 0 1
1168 37 1 13.029054054856212 7.662860426442027 31.801372045170222 0 0 -1
1167 37 1 13.718228510138998 8.344338170556679 0.1805231786992618 0 0 0
1166 37 1 13.855001477078686 7.369846496875286 0.41600437459095785 0 0 0
2902 91 2 14.633552311303843 7.479757446567164 1.2928440947090185 0 0 1
499 16 1 13.341807388567197 8.71356150259182 1.0830882210044808 0 0 0
2901 91 2 15.576442185249327 7.803229270049661 1.3465791704035937 0 0 1
989 31 1 16.871398448889806 9.309405563721615 0.07092004134842446 0 0 0
991 31 1 17.21069898399715 7.86143940166787 0.32464405299213056 0 0 0
992 31 1 18.201564113309477 7.857756008668462 0.5851826833624046 0 0 0
1280 40 1 21.064285785382474 7.62118301515227 3.315392967448561 0 0 0
1279 40 1 20.133415231052414 7.975080947497697 3.4022672295168004 0 0 0
1540 49 1 2.9249593280565045 9.474012136709414 31.726120593732553 0 0 -1
1539 49 1 3.9367772946452453 9.486737687449269 31.554321454621473 0 0 -1
1542 49 1 4.21407515269067 9.824056015711157 0.877736305903175 0 0 0
819 26 1 4.956800750195708 9.314765151459847 31.90850247328682 0 0 -1
802 26 1 7.232649717048091 8.623889091511503 0.36655891769927706 0 0 0
815 26 1 7.344454694012797 9.78224569046661 0.620341608643663 0 0 0
812 26 1 8.383316694529336 10.177886767396664 0.44527034750221245 0 0 0
3038 95 2 8.013667647198835 9.070517164572264 0.9223918215088287 0 0 1
3035 95 2 9.198162370036181 8.097115864553462 0.5241664518822765 0 0 1
1407 44 1 9.404941996166306 10.079068858250276 0.3732263839810219 0 0 0
1408 44 1 8.87545739092199 9.810471349622595 31.620890150071514 0 0 -1
1405 44 1 9.85878633271833 8.988069095231506 31.93342979400444 0 0 -1
1419 45 1 10.68976202061374 8.95242555619248 0.9597502425150926 0 0 0
489 16 1 12.038882916602072 8.962586693825084 0.10910129918959167 0 0 0
1418 45 1 11.606752092850959 9.076742950963643 1.4344991719450173 0 0 0
490 16 1 12.223622955117317 8.120255437136116 0.5169033850806981 0 0 0
500 16 1 13.197947447218572 9.398024408441733 0.31806249396655684 0 0 0
501 16 1 14.067754785431108 9.350218563248594 0.6257823987049171 0 0 0
488 16 1 12.123091932810086 8.196462503081804 31.546424004881295 0 0 -1
1471 46 1 14.920143599220093 9.120850158303792 31.23338256586357 0 0 -1
1472 46 1 14.242869208606852 9.620132458134337 31.63851693196706 0 0 -1
1441 46 1 15.209783346087132 9.831587296974316 0.017971241262506744 0 0 0
987 31 1 16.47426503990154 9.157898292018832 1.249528814365846 0 0 0
1018 32 1 18.50002037037809 9.776993110321428 0.6156521768287406 0 0 0
988 31 1 15.976947065371048 9.234955177793287 0.3895723890227783 0 0 0
990 31 1 17.347857757633722 8.783526311478253 0.7016895665252829 0 0 0
744 24 1 19.527483316409853 8.6773215345999 31.069976874673863 0 0 -1
745 24 1 18.646395018642675 9.04585253832711 30.89269346316315 0 0 -1
1019 32 1 18.699602109369035 9.01484595322162 1.192941588879876 0 0 0
1016 32 1 18.364577690470032 10.563226806066481 31.81705301278924 0 0 -1
742 24 1 19.44268173220723 9.337066957073546 0.5300992376268017 0 0 0
743 24 1 19.057287144902517 8.545193087960964 31.89514005288084 0 0 -1
1569 50 1 2.7003196529187568 12.241613803431479 0.41724852165556015 0 0 0
817 26 1 5.6130108867776 10.45482372145904 0.8363786605105865 0 0 0
1549 49 1 4.383576520661979 11.545643340030704 0.1915094449296535 0 0 0
1560 49 1 6.337081102466966 11.182520218213007 1.2190230919252572 0 0 0
1551 49 1 3.9356855146540974 10.579443090995168 0.13488300808378212 0 0 0
1548 49 1 4.661199560674246 10.922479441348052 0.8952018699499399 0 0 0
814 26 1 7.065800362767053 10.684729313045754 0.79443267888186 0 0 0
1069 34 1 7.149316951654853 11.368567998361709 1.8137551489028725 0 0 0
813 26 1 8.068171340317338 11.02087162771407 0.7175367216007786 0 0 0
824 26 1 8.240948471696223 10.948934122498905 31.65110670313679 0 0 -1
1406 44 1 9.531260847601455 9.265147867246652 0.8002977996169813 0 0 0
1424 45 1 9.312139700772063 10.136835596778122 1.4545554416376292 0 0 0
1425 45 1 9.109917470599399 10.982680646963344 1.0353350491909858 0 0 0
1426 45 1 9.609802647627614 11.547006709245743 1.7503554240771622 0 0 0
1400 44 1 11.344196955976663 11.036262269585704 31.286998199182328 0 0 -1
228 8 1 11.674363094411103 11.875944286116345 0.4815131031331509 0 0 0
227 8 1 12.276733065994131 11.306868774525869 0.8395084380578809 0 0 0
1417 45 1 12.478201760002689 9.258485133691472 1.1710710827974464 0 0 0
1401 44 1 11.655416840911027 10.683430843890129 0.180988523595259 0 0 0
231 8 1 13.27010643601523 11.258215469664412 1.905827248145591 0 0 0
225 8 1 13.340411583180696 9.954526033893162 1.1892129554775661 0 0 0
503 16 1 14.0767025709703 10.961270009531086 1.1817330263527854 0 0 0
226 8 1 13.053557024560284 10.813232706813984 0.9071003386599379 0 0 0
502 16 1 14.268048585541345 10.231054750412225 0.7072665272249917 0 0 0
507 16 1 14.831928334641582 11.185178727862825 0.4276177997509869 0 0 0
184 6 1 15.788773447373037 11.026951463626938 0.42344767618720647 0 0 0
1000 32 1 15.771545615480008 10.026524272649665 1.8308810901952326 0 0 0
984 31 1 17.304337265657427 9.995806073571815 0.8444701309838746 0 0 0
983 31 1 17.071739730255345 9.964911912894367 1.8045044698660524 0 0 0
1024 32 1 19.325837737910284 11.096340835095035 0.027784477316514664 0 0 0
1363 43 1 3.538416582145408 13.150123858056197 0.9938423042243715 0 0 0
1362 43 1 3.6159788035953357 12.52958237407997 1.7323634625693416 0 0 0
1365 43 1 4.560622249156035 12.786675127149616 1.6215368413267033 0 0 0
1364 43 1 4.381698011409239 12.999546811393621 0.6777888465164444 0 0 0
1561 49 1 5.984156372340902 11.73776598037328 1.9398252741317203 0 0 0
1070 34 1 7.352473540237852 11.738949157027857 0.8908089536421392 0 0 0
1071 34 1 8.315348063859293 12.07642686202246 0.8412158700008645 0 0 0
1072 34 1 7.965318190400068 11.928359812927303 31.939671910884147 0 0 -1
1066 34 1 7.629134488316949 12.812137950421082 1.0302916280415466 0 0 0
1398 44 1 10.07852360731489 11.028543409756839 0.4877136794881149 0 0 0
1384 44 1 9.113459545734456 12.773406060133581 0.6829852192737353 0 0 0
1397 44 1 10.722710820363195 11.684459299053943 0.16427509395579432 0 0 0
1396 44 1 10.741674058790046 12.006784178427203 1.1316247318129224 0 0 0
1395 44 1 10.825060437688595 12.570370069030275 2.0003273255222296 0 0 0
1229 39 1 12.109268838098942 13.592611302583219 31.69502817224612 0 0 -1
1230 39 1 12.363855386015814 13.506252952621285 0.6086735147284404 0 0 0
230 8 1 13.178498269003352 12.14309773854234 1.4168385523375457 0 0 0
176 6 1 12.163708063233669 12.742916366385435 1.9174964605122846 0 0 0
509 16 1 13.862247358567185 12.619804135662196 0.5265570134790907 0 0 0
508 16 1 14.540720708235884 12.103430859581117 0.09665332963800663 0 0 0
183 6 1 15.74736494962982 11.949807516122831 0.5727060349493683 0 0 0
1002 32 1 16.991742075519376 11.30887726181199 1.7436374136503043 0 0 0
430 14 1 18.19819801447599 10.963572892785127 0.7569328915340678 0 0 0
1003 32 1 16.699994716087545 11.902435423264043 1.1199170847452427 0 0 0
1953 62 2 2.798744284169321 13.345069030752303 1.6510805136208644 0 0 1
1084 34 1 5.532953298021326 13.59124496045249 0.3353150326572671 0 0 0
1085 34 1 5.364219135420768 13.76739385452857 1.3425588884641857 0 0 0
1086 34 1 6.019912963104594 14.410600907658608 1.6798786233845355 0 0 0
1373 43 1 7.803272652401865 14.36678762976385 2.292269887064905 0 0 0
1374 43 1 8.531915912218343 14.522620988364071 1.7530773808693807 0 0 0
1087 34 1 6.373067421418111 14.345396162031879 0.7579211439762621 0 0 0
1088 34 1 6.267381215305903 15.277832486292924 0.7320242456086918 0 0 0
1064 34 1 8.089635629565745 13.870159472483538 0.3390377902292608 0 0 0
1065 34 1 7.992092075717684 13.622175617868463 1.2401087148285999 0 0 0
1383 44 1 9.776664425009109 12.055382338513134 0.7958178979615882 0 0 0
870 28 1 10.07265930951368 14.490639490436235 0.5597012676889509 0 0 0
2310 73 2 10.784704818099536 13.195027663497461 0.4251320812258677 0 0 0
2311 73 2 11.48325330930434 12.797950583073177 0.9382458958365953 0 0 0
2309 73 2 9.846331030383414 13.320976631020857 0.19671867623230058 0 0 0
1231 39 1 12.40853860512894 13.847304158313147 1.511231601121024 0 0 0
1232 39 1 12.822114266420298 14.461795080885452 0.8597576962672144 0 0 0
637 20 1 14.200199056104449 14.380958190254285 31.60655248006922 0 0 -1
636 20 1 13.923590484813156 14.534814585716232 0.5227453338782736 0 0 0
635 20 1 13.72267629965957 13.87861731950767 1.116981035421053 0 0 0
181 6 1 15.315653403540813 13.734677852107268 0.7171598010036159 0 0 0
423 14 1 17.071441246242543 14.760636763485673 0.8301905114876706 0 0 0
182 6 1 15.430585308721726 12.86693050957733 0.3393731619981318 0 0 0
768 24 1 14.458915567871854 13.153795633939703 31.075167164351846 0 0 -1
426 14 1 17.78210387357664 14.229128168012444 1.3245891086198522 0 0 0
420 14 1 16.906580773475223 13.183560883376902 2.535406650861826 0 0 0
425 14 1 16.938899663436832 13.725344055033089 1.2998053482559515 0 0 0
429 14 1 18.297536024700097 11.858107702215225 1.1001096332785423 0 0 0
427 14 1 17.746038417447934 13.294715406797351 0.9630477163235698 0 0 0
428 14 1 17.5988106578246 12.377201717582055 0.608260653993343 0 0 0
885 28 1 8.973048405605496 16.27948367340934 1.1797853703039674 0 0 0
869 28 1 9.589368584050073 14.877545378694608 1.2658233978930113 0 0 0
883 28 1 8.160343764052516 15.980286487747872 0.328667899716467 0 0 0
886 28 1 8.908659438863047 15.565264916202608 1.7888574490223623 0 0 0
882 28 1 8.82849529803661 15.447133386039127 31.914495096983227 0 0 -1
871 28 1 10.15949402967608 15.433711731295412 0.30812548237749443 0 0 0
872 28 1 11.063379393256529 15.313730646339442 0.43656348919416926 0 0 0
873 28 1 11.956967771434607 15.70172426994684 0.435286139519868 0 0 0
1233 39 1 13.041430386745803 15.027002107056532 0.11745721276102669 0 0 0
634 20 1 13.42046861574936 14.615040523343298 1.671547003102463 0 0 0
633 20 1 14.287215501724047 14.927742723332221 1.6617381917578737 0 0 0
476 15 1 15.98126101546081 15.229781004081934 2.357668368722456 0 0 0
422 14 1 17.201956822007276 14.919223612086869 1.7968363670552825 0 0 0
545 18 1 7.222872307065042 15.183865318955316 1.6771533592861678 0 0 0
884 28 1 8.048291780700945 15.785699052442094 1.3133566231038278 0 0 0
798 25 1 10.714271836341998 16.874727314848975 0.22741554178313864 0 0 0
878 28 1 9.528638724568122 15.749464286913252 31.165740296594578 0 0 -1
877 28 1 10.509677481889526 15.75871240773776 31.39801180420442 0 0 -1
797 25 1 11.206244927322944 16.348589927555256 0.8515394960718304 0 0 0
875 28 1 11.001355550757252 16.66241941906365 31.093474511842338 0 0 -1
874 28 1 11.542174031839899 16.04426286261137 31.691792869063605 0 0 -1
559 18 1 6.198165699135245 16.759013709377523 2.4512770325646698 0 0 0
876 28 1 10.130396362700887 16.660564123268408 31.464337173090097 0 0 -1
2383 75 2 9.076338356211734 0.6788738555731473 1.62657307538478 0 0 1
2625 83 2 8.644637434738618 1.9227898647059396 1.6102465777332622 0 0 1
2626 83 2 7.744927071586723 1.7428563795431138 2.008721964569259 0 0 1
2385 75 2 10.239406971957209 1.0652753076712043 1.7299901540290994 0 0 1
2384 75 2 9.427029636055769 1.429075669640115 2.0925475145417147 0 0 1
2859 90 2 11.688108709341622 0.7697265414802673 1.8719716030869133 0 0 1
3166 99 2 14.35461125793634 31.685197045162678 2.8266124238518415 0 -1 1
3167 99 2 13.533738384206583 0.05321447217165677 2.4611887470546034 0 0 1
3165 99 2 14.633264027854047 0.5713198669806037 3.1415144017775245 0 0 1
1506 48 1 17.871111632908374 0.9095310298269301 2.73903018296984 0 0 0
3085 97 2 4.874221826455585 2.649689710527312 3.1218005283027406 0 0 1
1501 47 1 7.109786401386042 1.3786461699447576 0.378917826280969 0 0 0
3082 97 2 6.431168590039331 1.5136548954196964 2.2622685631927832 0 0 1
3081 97 2 6.1250499341439335 0.7684899134130417 2.7418926686580196 0 0 1
3120 98 2 8.072443161172012 2.7434422222534973 2.1147727315658438 0 0 1
3119 98 2 7.59245823433959 3.5676011128888074 1.9699411979484838 0 0 1
3118 98 2 7.082583601100773 2.738557750782597 1.6959783369513104 0 0 1
1496 47 1 10.031785356565061 2.697802248808761 1.465774518353207 0 0 0
1495 47 1 9.475636648385558 2.4463238547579236 2.319115441782221 0 0 0
2857 90 2 11.899506416230162 1.7288534601856693 1.3601395280748099 0 0 1
2392 75 2 11.120114873717979 1.4028048488840483 2.4313964385352502 0 0 1
2393 75 2 10.400039515207778 1.9932187337054093 2.2451661823075573 0 0 1
2851 90 2 11.148545617450642 2.858513827005643 1.5698140275718142 0 0 1
2347 74 2 14.392798234747183 1.7567348870805912 1.4330580008888085 0 0 1
2348 74 2 13.432669208569353 1.7829769384242602 1.7377616907629911 0 0 1
2349 74 2 13.177817662140262 2.4615385237047924 2.328039228547078 0 0 1
3164 99 2 14.812843830847358 0.6866596808503389 2.2122771256030935 0 0 1
2108 66 2 15.184125599520007 2.6162744102220628 3.3419199618087245 0 0 1
3163 99 2 15.621755120275088 1.0192459282863569 2.618745598686981 0 0 1
3160 99 2 16.818450777588268 1.2724134325963685 2.7890295245118075 0 0 1
2120 67 2 17.71092989855425 2.075864713946108 2.898578196038564 0 0 1
2119 67 2 17.942583078945002 1.9825057876961494 1.9737170287405492 0 0 1
1507 48 1 17.257598961453702 0.6033247871426278 3.505390518234839 0 0 0
3086 97 2 4.976432042695683 3.376412316280125 2.484440247701952 0 0 1
3129 98 2 6.549611173387907 3.636414200652296 1.8834425557565657 0 0 1
3130 98 2 7.081556949988125 4.1713611130521056 1.3681650748803484 0 0 1
3112 98 2 7.989088958385919 3.6659337333598714 2.8803323519730184 0 0 1
3111 98 2 8.798376212278047 3.9684846052377463 2.5750381699567986 0 0 1
3110 98 2 8.889557947635048 3.3132251687644096 1.8732204990975503 0 0 1
2839 89 2 9.611561840220292 3.787192450349021 3.2044622375931056 0 0 1
3109 98 2 9.629283709636393 3.6391718618886717 1.2351914682829253 0 0 1
2841 89 2 10.587901035715985 3.7258981940348765 1.7007361226169344 0 0 1
2840 89 2 9.923495697297579 3.4924891352430336 2.3041117678893044 0 0 1
2867 90 2 10.279446818931872 4.496484637308246 2.41557179774469 0 0 1
2853 90 2 11.658253104393584 4.0161352566648985 2.625221004226549 0 0 1
2852 90 2 11.229357178254068 3.1511374137885046 2.482110220560862 0 0 1
2868 90 2 11.09691439945861 4.5728013858795915 2.0077179472891404 0 0 1
1660 52 2 12.450404285761799 3.633839573112395 0.937971709567603 -1 0 1
2855 90 2 12.273464216613135 2.6463284403781926 1.7908832171377826 0 0 1
2854 90 2 12.311476014867921 3.55201925237383 2.0442778916799895 0 0 1
1658 52 2 13.873894048555595 3.110204801355318 1.9391055439878258 -1 0 1
1657 52 2 14.52158401360905 2.6124368575151853 2.4375519466277358 -1 0 1
2361 74 2 14.383315045041957 4.563738891214112 2.9312859276738576 0 0 1
2346 74 2 15.124961823462476 1.6960325420765157 2.069541153005302 0 0 1
2363 74 2 16.10144361379188 4.254830741521232 2.560759548598395 0 0 1
2106 66 2 16.109984453525115 3.169100205927415 3.2989622685767555 0 0 1
2362 74 2 15.20567231871326 4.3443144838242995 2.4353130576496334 0 0 1
3159 99 2 16.252647156159465 1.9250412475274674 2.5486716918745005 0 0 1
2105 66 2 16.74685790313588 3.7706341147545976 3.618988123212044 0 0 1
2118 67 2 17.62022853631222 2.8262000296409173 1.7735244138339237 0 0 1
1262 40 1 18.887239532387582 3.3845371720046487 2.137806204264778 0 0 0
1263 40 1 19.12285414666132 3.5515834004383153 3.0349387308537823 0 0 0
3135 98 2 4.042285684872246 6.199786532144052 0.9452034128697873 0 0 1
3134 98 2 4.427917502019778 5.285397074783231 0.804453893155029 0 0 1
3087 97 2 5.56143419684775 3.0865594828465897 1.7578719342502467 0 0 1
3132 98 2 6.211201858874922 5.037494323537264 1.1655765563164238 0 0 1
3092 97 2 7.028588136354132 5.080004391239268 2.954479285736359 0 0 1
3096 97 2 9.389119387359761 4.737564599327834 1.8986227423852897 0 0 1
3095 97 2 8.522929865561977 4.661874254556597 1.5675673087102402 0 0 1
2716 85 2 8.447852377304661 5.503665242117208 2.149896833581408 0 0 1
2717 85 2 8.981472876688825 5.819262804553758 2.86117368125812 0 0 1
2869 90 2 12.117645310448875 4.768768411525508 1.9431410393898718 0 0 1
3065 96 2 10.881312497709413 5.629456615603471 2.078471580124754 0 0 1
2798 88 2 13.261778302547919 4.906581369163587 2.4078674405584826 0 0 1
2797 88 2 13.024505697700528 5.8805388030469254 2.6422599121172428 0 0 1
2873 90 2 13.73538936581656 5.591985947861136 1.6156511970775802 0 0 1
2799 88 2 13.839864457405342 4.176291997752766 2.208665345475286 0 0 1
2879 90 2 14.671431062967008 6.060492588886007 1.9299969337431235 0 0 1
2891 91 2 15.764180803238752 5.041073301829957 2.024358908426481 0 0 1
2890 91 2 15.646702784989671 5.333727718607285 2.9212884085227433 0 0 1
2365 74 2 16.82497459060548 5.4751748175504416 1.6053985681483216 0 0 1
2364 74 2 16.946841342991487 4.685922533641569 2.1332091183349937 0 0 1
1515 48 1 16.899756533035877 3.712071493567663 2.2415569927642345 0 0 0
1514 48 1 17.61275498435337 3.6643265137458854 2.866804202568919 0 0 0
2367 74 2 18.166752484651305 5.6733974378385605 1.7329138426613369 0 0 1
1267 40 1 18.250502278036887 5.575149996635379 3.5914869570263512 0 0 0
1264 40 1 19.668255504126797 4.045104908019843 2.3683079921213652 0 0 0
2699 85 2 2.545420046869574 6.1053282362458825 1.495067860383485 0 0 1
2701 85 2 3.5037030250831345 6.730845928705303 1.9698611649718931 0 0 1
2705 85 2 5.91099398386954 5.961409622515001 0.6813571550620572 0 0 1
2464 77 2 5.534058619217248 7.438965167687735 2.0400756964241498 0 0 1
2702 85 2 4.348971304840344 6.8254774456025915 2.5603835817939644 0 0 1
2704 85 2 5.181373525867715 5.976671383846703 1.3176934697678855 0 0 1
2462 77 2 6.610902415264257 6.141290473854863 1.5336321412495384 0 0 1
2463 77 2 5.828848175324494 6.728212365947582 1.4923810972899147 0 0 1
2441 77 2 8.089146678414716 7.124407268905731 1.0100865003944364 0 0 1
2485 78 2 7.483074042864138 6.7731858510852225 2.877613525621607 0 0 1
3066 96 2 10.022722649045525 5.722083077814322 2.421486669732999 0 0 1
2764 87 2 8.986296093598893 7.347802991015769 2.444590397599281 0 0 1
2761 87 2 9.87597138068627 6.662481730485923 1.3353380669440684 0 0 1
2765 87 2 9.337894708496734 6.819588378524162 3.100159492328406 0 0 1
3067 96 2 10.388422126138602 6.495439286112873 2.8575988044281333 0 0 1
3063 96 2 12.095331685569855 6.242849094073676 2.220722012840457 0 0 1
3064 96 2 11.710517025610066 5.6112366242820775 1.5465565382592208 0 0 1
3062 96 2 12.04280249393899 6.524865774981991 1.3601673031044108 0 0 1
2795 88 2 11.816626179029138 7.012076652299739 3.0409984067276654 0 0 1
2796 88 2 12.685593623334366 6.671450965266465 2.9691832382594203 0 0 1
2874 90 2 14.31223515308285 5.90776748945639 0.893733283993625 0 0 1
2878 90 2 14.091986516868234 6.716035851631499 1.598478211588898 0 0 1
2877 90 2 13.176881437514371 6.476967521281351 1.8723231705697863 0 0 1
2904 91 2 15.429055313282658 6.4495297215092355 1.2582321756835182 0 0 1
2905 91 2 15.17262254966541 6.996526708824761 2.0596475792372697 0 0 1
1449 46 1 16.464861744505022 6.473467453797044 1.581875406221793 0 0 0
2887 91 2 16.47879771147368 6.008252259044389 2.697818611003728 0 0 1
1451 46 1 17.170820812408525 6.320995992518636 0.69506980403003 0 0 0
2888 91 2 15.646566992320585 6.0792826204128945 2.2427028291764586 0 0 1
1269 40 1 17.148389724136482 6.834808471895102 2.6456523019302596 0 0 0
2368 74 2 18.99090708602762 6.055316220974449 1.9354662491184926 0 0 1
1268 40 1 17.648832634449306 6.237929493914689 3.1652887311206155 0 0 0
1278 40 1 19.97560578305886 8.20516952696314 2.5170668435240753 0 0 0
1601 51 1 4.720413773962851 6.947187248087125 1.2095839883765425 0 0 0