LAMMPS data file via write_data, version 27 Jun 2024, timestep = 100000, units = lj

9792 atoms
2 atom types
9384 bonds
1 bond types

0 32 xlo xhi
0 32 ylo yhi
0 32 zlo zhi

Masses

1 1
2 1

Pair Coeffs # lj/cut

1 1 1
2 1 1

Bond Coeffs # fene

1 30 1.5 1 1

Atoms # molecular

8953 374 2 1.2896037141982357 0.889199413301023 0.6646511463894459 0 1 1
9656 403 2 0.26379132201645394 0.24076799770180785 0.5121280099986633 0 1 1
135 6 1 2.0152767438867065 1.2916197527026752 1.4266315434116505 0 0 0
8968 374 2 2.4978427999727195 0.5065650749509386 0.5698418777517634 0 1 1
5006 209 2 4.306025263452368 1.4123740976507737 0.9871611555345637 0 0 1
9296 388 2 4.361267735383427 0.16112325165152638 0.9749192133754567 0 1 1
9291 388 2 3.6106403167079035 0.7339622463771548 0.6170386294468537 0 1 1
5003 209 2 5.233416194568535 0.9357944064408047 0.9926787327263439 0 0 1
5002 209 2 5.831575775711902 0.20979377404224292 0.918498226416952 0 0 1
5396 225 2 6.843126742407178 0.6301131647907123 0.5792367289633936 0 0 1
5395 225 2 6.358512791491935 1.2078603893694788 1.1734888712670086 0 0 1
9345 390 2 7.882264815948105 0.9507544635233482 0.5877357767048816 0 1 1
9346 390 2 8.467270564328672 0.4233203055554647 1.0672230185446463 0 1 1
9773 408 2 9.9819180588778 1.0180723727915066 0.6271276384871138 0 1 1
4508 188 1 9.11676365115711 0.3552085999103324 0.3026371443551489 0 1 0
9774 408 2 10.163518255155486 0.5470221051742571 1.4245247640473344 0 1 1
9775 408 2 11.108177378604413 0.5703104300098217 1.2469591515044114 0 1 1
9699 405 2 10.990255961449478 0.8513984649315693 0.1562053245766823 0 1 1
5099 213 2 12.99960134204169 0.8666427110815321 0.5241583248258262 0 0 1
5100 213 2 12.497607362487972 1.1219786489656234 1.3247301217340999 0 0 1
9408 392 2 12.098125838042982 0.26469584726412665 0.821123158990203 0 1 1
5096 213 2 13.086304204772206 0.07982968550441505 1.3556866791132391 0 0 1
9761 407 2 12.12524036569296 1.3213825512408532 0.05577668667446429 0 1 1
5098 213 2 13.617145391384508 0.19100951218859527 0.49574187532269665 0 0 1
5793 242 2 13.679890310232134 1.444644260237062 1.1338772686657241 0 0 1
292 13 1 14.681631243302949 0.3472907051250538 0.46985544021093445 0 0 0
291 13 1 14.883957168802544 1.1761594458525013 0.7866330888205508 0 0 0
295 13 1 15.764723824973013 0.7172485315346848 0.5858011770988061 0 0 0
300 13 1 16.858032779552136 0.798171794290059 1.0425059300333037 0 0 0
5187 217 2 17.367195466665272 0.19488465592394408 0.05303248221193374 0 0 1
5515 230 2 18.461819954715352 1.3815829418192047 0.4588265336000196 0 0 1
5516 230 2 17.935831667807573 0.6646611751073395 0.8616089028731806 0 0 1
5526 231 2 19.303140371288553 0.30404056211769137 0.5078368513699344 0 0 1
5169 216 2 20.22982902030648 0.8912008410923851 0.4320452440322245 0 0 1
5170 216 2 19.44513686642337 1.3259349942999603 0.7736115887444713 0 0 1
4329 181 1 21.790739201553308 0.7475581568048454 0.12460804553576058 -1 1 0
4330 181 1 20.998394521198744 0.17452635954690984 0.21443357166812946 -1 1 0
5551 232 2 21.635341130988028 0.9646111780934179 1.2912057929871195 0 0 1
5613 234 2 22.56594018602035 1.3080720496362066 0.9507062236276241 0 0 1
5612 234 2 22.853664979483792 0.5397702420552125 0.43804649673611545 0 0 1
5616 234 2 23.923419434476763 1.2740595609881509 0.07297480954039173 0 0 1
9547 398 2 23.903927934141993 0.22070538343518864 0.8333501104188347 0 1 1
9569 399 2 25.772381393596884 0.15747704231102003 0.8798211123290394 0 1 1
328 14 1 25.936173917942877 1.2876873158684068 1.1177251881508605 0 0 0
9545 398 2 24.826845813791248 0.5250228574664279 0.5300156728686888 0 1 1
327 14 1 26.71793402428218 1.406495922488143 0.5782156371414008 0 0 0
9568 399 2 26.42641506432819 0.4219342964645675 0.23450543366920684 0 1 1
9615 401 2 27.679438887099668 0.7728765025697022 0.814498420136068 -1 1 1
9616 401 2 28.552437208358153 0.8386041810710131 0.5643060719102301 -1 1 1
9614 401 2 28.022276334135398 0.09783545527990142 1.4048720090207236 -1 1 1
5312 222 2 29.51364898681639 1.200713055332007 0.5539042930434397 -1 0 1
5311 222 2 30.23043502059029 0.5432688612009454 0.4928458556985477 -1 0 1
9611 401 2 29.28373820501824 0.04045355892655723 0.9994517963950565 -1 1 1
5310 222 2 31.133487444281894 0.4690891938462576 0.8704460827788498 -1 0 1
5309 222 2 31.56717490749711 1.2618083563580271 0.44785310132857425 -1 0 1
5308 222 2 31.249794296979825 1.319607560331525 1.3663666488650978 -1 0 1
4945 207 2 0.33419015475832814 2.117649893388406 0.21532381151918512 0 0 1
4946 207 2 0.8200064532335852 2.728003839356689 0.7256794145587944 0 0 1
136 6 1 1.4779823190410022 1.9962081544176973 1.038307824755393 0 0 0
5009 209 2 2.1713069411321575 1.5475553754046505 0.3601275349711639 0 0 1
5012 209 2 1.884411192761233 2.7201778262639795 0.1895390660052141 0 0 1
5013 209 2 2.7353270541481947 2.900515780773472 0.533608940714266 0 0 1
5008 209 2 3.0284613469708512 1.89855233667564 0.7460339911478752 0 0 1
4993 209 2 3.8994653805466015 2.491188100871945 1.0020606003413093 0 0 1
4994 209 2 4.748528129429029 2.3546501308407026 0.619885701150756 0 0 1
4995 209 2 5.575580705545433 2.648506478829072 0.8939487639529369 0 0 1
5068 212 2 7.128330072959084 1.9626216699720682 0.9203880993951368 0 0 1
4996 209 2 6.073882634624751 1.9154217688252142 0.4628619461886246 0 0 1
5067 212 2 7.158094905970618 2.725050396101672 0.25629205523986065 0 0 1
5408 226 2 8.708251335101018 1.5026058374835245 0.4397596142384414 0 0 1
9735 406 2 8.048384123804842 2.416866628713522 0.5524065563520296 0 1 1
9702 405 2 10.082396763199604 2.7272057469375266 0.8450731524698247 0 1 1
9701 405 2 10.053635463407383 2.107974020001552 0.07868769675594456 0 1 1
5410 226 2 9.183380342063627 2.756939343472123 0.37303716698228806 0 0 1
5409 226 2 9.424842754361432 1.9466165581769388 0.8845026593567956 0 0 1
9772 408 2 10.55666076933545 1.7470756393439204 0.9541082796461121 0 1 1
9760 407 2 11.567603845607273 1.5636027579031422 0.8420931666666781 0 1 1
9759 407 2 11.545520502391566 2.541681383191138 0.8978677841853427 0 1 1
5413 226 2 10.89778436324338 2.7181696887814057 0.04906815240564495 0 0 1
9763 407 2 12.730287944400823 2.606965723127731 1.1176935901299003 0 1 1
9762 407 2 12.429763099695723 2.196645361978278 0.3413880769856358 0 1 1
5794 242 2 13.590549476927148 2.2241003180724377 0.5791669023343112 0 0 1
5791 242 2 14.8069711757499 2.4188767619072506 1.1728567214792895 0 0 1
1346 57 1 15.92499601299073 1.8377177605260728 1.2365883302845144 0 0 0
5787 242 2 15.037298686857469 1.9995379491766654 0.18124104027828983 0 0 1
5510 230 2 16.37878321863763 2.817171117167044 0.7491641876825086 0 0 1
5512 230 2 17.333640736233775 2.4810893952144872 0.2329830529214881 0 0 1
298 13 1 16.10590647262298 1.998573139768223 0.26820082271711326 0 0 0
299 13 1 16.886357293105824 1.7083185744571512 0.7585154505978924 0 0 0
5514 230 2 17.816894063258314 1.799885992617451 1.1630775887523865 0 0 1
5513 230 2 17.830128760114164 2.7560302184907033 0.9965383013622888 0 0 1
1352 57 1 18.906775604932132 2.119713338749731 1.2880607673943445 0 0 0
1353 57 1 18.713919700593728 2.441215900564057 0.42069842772874555 0 0 0
5918 247 2 19.940807516299387 2.218619283288187 0.5873883192165756 0 0 1
4324 181 1 21.647286928872862 2.832481903794849 1.2196841980038668 -1 1 0
5919 247 2 20.754689741983405 2.1960508532738543 1.124479536470257 0 0 1
5206 217 2 21.116058847358477 1.4969444460994616 0.1590123173457894 0 0 1
4325 181 1 22.39138902883697 2.6872593422173683 0.5941687267987913 -1 1 0
5614 234 2 23.414511892227544 1.7129384769963938 0.822243091863216 0 0 1
5615 234 2 24.25716119274392 2.0283414749397655 0.5818251342945767 0 0 1
329 14 1 25.654292166449842 2.197893916605266 0.955384080798607 0 0 0
5275 220 2 24.749459888488097 2.8716771478129743 1.388154523262705 -1 0 1
9566 399 2 25.09847597817126 1.6635406496660117 0.05688850380851971 0 1 1
330 14 1 26.461625830186218 2.594725476563889 0.7692753663482829 0 0 0
5337 223 2 28.67271534174114 2.7128792601346565 1.4217481081194967 -1 0 1
5313 222 2 28.901721996709956 1.9501974850937465 0.7093935532718117 -1 0 1
5305 222 2 30.4025226647559 1.9483237435625596 0.9597482340607594 -1 0 1
5338 223 2 29.646351613649145 2.5160807090666 1.3142719640946483 -1 0 1
4906 205 2 30.419183107881196 2.807271374630101 0.1725259809848412 -1 0 1
4911 205 2 31.471342491919163 2.7635750470224503 0.6770784692843181 -1 0 1
4904 205 2 30.65745576988698 1.714836212357354 0.008678050414189897 -1 0 1
4947 207 2 0.24777482781612212 3.426976281841465 0.30011774580373196 0 0 1
4948 207 2 1.0176712477971932 3.7240857028907492 0.6912979489784371 0 0 1
9680 404 2 0.1967528013627323 3.545462662658295 1.4527780815198728 0 1 1
101 5 1 2.5963659492309676 4.099458720427968 1.2767689276226633 0 0 0
141 6 1 4.152110335139082 4.101428310130686 0.851819206519048 0 0 0
102 5 1 3.1063507525178116 4.1677928915513816 0.5656683836350795 0 0 0
5709 238 2 3.8995933959999296 3.2808333993811627 0.1221637900211514 0 0 1
140 6 1 3.457030627348342 3.570105574077602 1.376514233975707 0 0 0
4800 200 1 5.137434419465251 4.354786343147527 1.331942326255235 0 1 0
142 6 1 4.846518312951483 3.4394076301393848 0.6102095888426641 0 0 0
108 5 1 6.002089674275654 3.6521702897377177 0.8189870256458546 0 0 0
109 5 1 6.791708702564934 3.838460026442151 0.2877139141299212 0 0 0
110 5 1 7.103331399558871 4.307999873068625 1.0574311846221074 0 0 0
9734 406 2 8.214637409711067 3.07345285302837 1.2724134717492348 0 1 1
113 5 1 8.03098993424474 4.195972656019932 0.1162595017474988 0 0 0
9705 405 2 9.681700525849259 3.637157667462329 1.06149107648424 0 1 1
9707 405 2 9.411518512403731 3.9369389838864843 0.11191599070766035 0 1 1
9706 405 2 8.8410293231008 4.091278590079286 0.8164081297254493 0 1 1
9710 405 2 10.971000174034954 3.5704719603216937 0.6890770401263316 0 1 1
9712 405 2 11.916535848784509 3.6806311883286575 1.117035293816727 0 1 1
5482 229 2 12.290565651374516 4.1727543505900195 0.39725934835322446 0 0 1
5851 244 2 14.337164428184098 4.0239848055681815 1.1917431871371 0 0 1
5796 242 2 13.316865458370902 3.576665638727209 0.4179738117264351 0 0 1
5795 242 2 14.093542307008784 3.097228883965831 0.5981541626770375 0 0 1
5789 242 2 15.281765007122733 3.24615619314475 0.7944586553793404 0 0 1
6147 257 2 14.709037815262507 4.161782297839453 0.2662307616379031 0 0 1
5850 244 2 15.317134981954641 4.295826385164516 1.1868640603039051 0 0 1
5875 245 2 16.98030891079135 3.7590540070878986 0.6760648085072591 0 0 1
5874 245 2 16.290663928017995 4.2524201501975325 0.22616121670596648 0 0 1
5849 244 2 16.26234631543873 4.232131372975595 1.2851322496987339 0 0 1
5870 245 2 18.090815137649056 3.629719585701632 0.5361386561185798 0 0 1
5871 245 2 17.798000559759807 4.2590172963997 1.1567626642277267 0 0 1
5917 247 2 19.896313289181478 2.9795850139888787 0.09464043157444176 0 0 1
1354 57 1 19.133596276740473 3.198307394537593 0.7397590457930208 0 0 0
1355 57 1 19.834706550098325 3.7859818009310326 0.9072101792594627 0 0 0
1356 57 1 19.161991677945153 4.3081374336511145 1.4083091794827058 0 0 0
5920 247 2 20.727443004893306 3.125368488821058 0.89302892289362 0 0 1
5921 247 2 20.820295404319978 4.061794191191423 0.8732852245821018 0 0 1
5585 233 2 22.071240439089813 3.996652572012412 0.7423090216311112 0 0 1
5586 233 2 23.027580514179324 3.767980742885272 0.9441258262827121 0 0 1
5639 235 2 23.650455359949564 2.9267634607922672 0.44096062177385853 -1 0 1
5274 220 2 24.149121556342926 3.60160180247466 1.1806082552153254 -1 0 1
5618 235 2 24.685169183985625 3.5317078152794394 0.37226509185735956 -1 0 1
5258 220 2 25.82681073851676 3.483779446001525 0.5325052466334513 -1 0 1
5273 220 2 24.934729073099447 4.121902419533701 1.4099263187618951 -1 0 1
5257 220 2 26.66068472015988 3.853098472406086 0.8978550314965803 -1 0 1
5624 235 2 27.119222749899723 3.6627760913821326 0.05017291556735025 -1 0 1
5299 221 2 27.75113969669364 4.104071495466133 0.7868689689777251 -1 0 1
5300 221 2 28.655175121969595 4.288379678924355 0.9750061765005686 -1 0 1
5334 223 2 29.085893240860305 3.343093437472435 0.6057262483453152 -1 0 1
5335 223 2 28.127035459113642 3.148546137628614 0.5462854095411217 -1 0 1
313 14 1 29.876390777901317 3.6604102035063995 1.4097557717019582 0 0 0
4907 205 2 30.459695681769727 3.7083863396334857 0.039963930573845396 -1 0 1
4910 205 2 30.790446886354687 3.4050049419551245 1.0140553879778598 -1 0 1
4909 205 2 31.42186130176602 4.04534520172241 0.6421508926540562 -1 0 1
4920 205 2 0.46327732565655083 4.537702138090546 0.7539464444655553 0 0 1
4950 207 2 1.4263022946505641 4.850101004689507 1.115130514368975 0 0 1
4919 205 2 0.2599325052104583 5.478435982856552 0.7506780581790266 0 0 1
4953 207 2 2.1007810068009762 5.560189155794975 1.318456983486885 0 0 1
4952 207 2 2.021585288691599 5.500776051785923 0.34859338112142974 0 0 1
103 5 1 2.880602055093182 5.025666224405093 0.9888757594307183 0 0 0
4951 207 2 2.053063857609914 4.543976977042246 0.37913382425996733 0 0 1
1196 50 1 3.810593342918691 5.768210070056743 0.29146173768857664 0 0 0
1197 50 1 4.3107061610755055 4.930125076341762 0.3752522371894024 0 0 0
4989 208 2 5.50471034701411 4.7678304930344355 0.04765162374350271 0 0 1
4986 208 2 5.716786360108684 5.750461366868587 0.6619956274517643 0 0 1
4988 208 2 6.240448458658703 4.643586595559815 0.6679816095063607 0 0 1
4987 208 2 6.29211117128319 5.364426639761138 1.308365002130448 0 0 1
6071 253 2 6.809409523389543 5.405513154245699 0.1667952665938987 0 0 1
111 5 1 7.484688724863501 5.132178724916115 1.435514280841972 0 0 0
112 5 1 7.89583190895775 5.023104120479755 0.5298882087817937 0 0 0
9727 406 2 9.830274953516154 5.154153931016526 0.9283274403838924 0 1 1
9726 406 2 10.11712702840894 5.68905601050685 0.14151399789386185 0 1 1
115 5 1 9.009966398098626 5.465530551725653 0.23216572859908194 0 0 0
9709 405 2 10.489274881098284 4.423554131497642 0.4744553678746015 0 1 1
5480 229 2 11.532209680533207 4.769592473174904 0.9154764113235125 0 0 1
5479 229 2 11.224020295258262 5.4535326423482315 0.3328901595913637 0 0 1
5481 229 2 12.33600125206088 5.132919132461558 0.5012689119010123 0 0 1
5856 244 2 13.462014852690992 4.628756106941033 0.44022166501813353 0 0 1
5854 244 2 14.395840843953104 5.166183614281918 0.30759960546454 0 0 1
5853 244 2 14.389218122024017 5.237028078305194 1.2754420665221935 0 0 1
5873 245 2 16.276300320487305 5.135660913606273 0.573681350501851 0 0 1
6166 257 2 17.365664500440484 5.574809673432525 0.4060867563467637 0 0 1
5872 245 2 17.052657732203567 4.899442871883272 1.1117294791332588 0 0 1
5876 245 2 17.405225285079574 4.4452690538049175 0.17609717725111054 0 0 1
5569 233 2 18.191677964193268 5.104239222834382 1.4007212867685246 0 0 1
6165 257 2 18.25137242801265 5.223301275288752 0.46801351279757053 0 0 1
5879 245 2 18.95866559344267 4.452661154634309 0.29886552252396703 0 0 1
5570 233 2 18.9642008877241 5.556684848732768 1.1312692309479615 0 0 1
5880 245 2 19.81297265123006 4.782071822030029 0.5891160617560622 0 0 1
5924 247 2 21.326970508345983 4.948053107512707 1.0736940646868718 0 0 1
5896 246 2 20.58908174844367 5.620742693343002 0.51825347219948 0 0 1
1057 45 1 23.04865254385813 5.257195531125984 0.4476302707396626 0 0 0
1058 45 1 22.572364217839432 4.915540112178623 1.2176646264122375 0 0 0
5925 247 2 21.938114256339023 5.591360638206989 0.5534714203669197 0 0 1
5588 233 2 23.866629802921153 5.390227073044941 1.115269090131265 0 0 1
5587 233 2 23.65593593591187 4.508530349523103 0.838393823357639 0 0 1
5589 233 2 24.212331271881443 5.5167418479150685 0.21961614305213584 0 0 1
5261 220 2 25.431795272246067 5.307770401720773 0.21813723656910608 -1 0 1
5260 220 2 24.81079941616825 4.595628787481358 0.3443007750318023 -1 0 1
5259 220 2 25.656057023088977 4.394512788607687 0.6241465398273012 -1 0 1
5271 220 2 25.014515603764288 5.14126747500795 1.2195535338600203 -1 0 1
5643 236 2 27.068446248739733 5.763732528599167 0.756223320090858 -1 0 1
5642 236 2 26.32445833141248 5.244775249115646 0.9672165640383157 -1 0 1
5641 236 2 26.81312172284937 4.732032701231608 0.29193981197577973 -1 0 1
5303 221 2 27.917567460777256 5.275916392128979 1.0271820292428966 -1 0 1
4928 206 2 28.737955345966807 5.148762259504263 0.1655321065358236 -1 0 1
4930 206 2 30.42282945498918 4.700587991956324 0.6197768216584963 -1 0 1
5347 223 2 29.18136984400939 5.682752360613034 1.2196830323353973 -1 0 1
4929 206 2 29.51753718507711 4.643345301763113 0.4469527743539107 -1 0 1
4918 205 2 31.529980107024944 5.090623247847098 0.2531110225241343 -1 0 1
4926 206 2 30.603049608376782 5.755890540437348 0.24636381349062816 -1 0 1
9683 404 2 31.18951566578129 5.526239721480506 1.087487736926471 -1 1 1
477 20 1 1.2096403091092367 6.12878847203966 0.0892747391418243 0 0 0
476 20 1 0.720173451774925 6.564581982696295 0.7352964677075541 0 0 0
4954 207 2 1.2283758344633326 5.921503286748041 1.4238108114389838 0 0 1
475 20 1 0.13746378995104058 7.005071456492995 1.438304491146452 0 0 0
5695 238 2 2.8042427699228827 6.2078065034064265 0.45376576290850035 0 0 1
468 20 1 1.8104200307345508 6.578754017995182 0.7757437621941605 0 0 0
469 20 1 1.6035070072747686 7.2694994291065695 0.16930170774898462 0 0 0
1188 50 1 4.185887483316716 6.122819530415344 1.210366683296027 0 0 0
5694 238 2 3.334853700317983 6.785438534427651 0.949057236388813 0 0 1
1193 50 1 4.413140790172983 7.055908833439199 0.47031389211395996 0 0 0
1189 50 1 5.076397546448416 6.496039647796522 1.3234194317394654 0 0 0
1190 50 1 5.735962451946687 7.177718551712685 1.1242545455309687 0 0 0
4985 208 2 6.405290484165108 6.455450086613528 0.8789943404376241 0 0 1
6068 253 2 6.6900080205824555 7.192931886330944 0.3240345518625083 0 0 1
5042 211 2 8.23771479547788 6.0086766103463045 0.7740026100935236 0 0 1
4970 208 2 8.008229096471318 6.943104401754983 1.3732952207717377 0 0 1
5043 211 2 7.500943600767289 6.5516259762551545 0.3730814114968453 0 0 1
5041 211 2 8.98380362972288 6.0942068635634055 1.2894814279735383 0 0 1
5055 211 2 10.051548996881136 6.720567704160636 0.7023877017926318 0 0 1
5056 211 2 9.155971713595857 6.855849908003281 0.47339784488285336 0 0 1
5054 211 2 10.900783806611162 6.448948188326882 0.3705925430401282 0 0 1
5026 210 2 10.546160454500999 5.898300318614101 1.2562664167018502 0 0 1
1293 54 1 11.09031349350287 6.819295736246451 1.2736119550825575 0 0 0
5478 229 2 11.920028703615058 6.126459566507325 0.02297680516804207 0 0 1
950 40 1 12.62546301720712 6.686602968409887 0.6997229599770449 0 0 0
951 40 1 11.786686472414662 7.075479369909154 0.4869412499492167 0 0 0
1292 54 1 11.6651863793669 6.059723910827328 1.2624244836560212 0 0 0
949 40 1 12.68631377419257 6.161831626814554 1.446571576176632 0 0 0
948 40 1 13.49413677997342 5.964419785904821 0.939267288827987 0 0 0
5491 229 2 14.092574174725284 7.116782735855459 0.929212640234045 0 0 1
5490 229 2 13.644279388331062 6.866263816432596 0.1602409570270333 0 0 1
5824 243 2 14.623730598524233 6.337205581241821 0.6807116910317318 0 0 1
5823 243 2 14.95329164972803 7.118954370830313 0.39955607998530357 0 0 1
5826 243 2 15.713942192042055 6.205195568541908 0.9087762623735536 0 0 1
5828 243 2 17.13588091256692 7.026731637725417 0.359716259440135 0 0 1
5827 243 2 16.14343889849769 6.930254969342125 0.4469459785803511 0 0 1
6167 257 2 17.989908664265077 6.362129338093492 0.48459257555139346 0 0 1
6168 257 2 18.951543843681886 6.126439906999214 0.1412238499056189 0 0 1
5897 246 2 19.77789276435711 6.009190060804342 0.7336276582838467 0 0 1
6228 260 2 19.983480352395574 7.100632629868829 0.5880299642325967 0 0 1
5899 246 2 18.96552351396111 6.881393712550375 0.8607482638716135 0 0 1
6259 261 2 21.684589862264914 6.67420829900702 0.979013803393336 0 0 1
1063 45 1 20.556673140774883 6.543257662895442 1.374092136159616 0 0 0
6227 260 2 20.673932600362736 6.5817842652703735 0.15180935315391245 0 0 1
5968 249 2 22.202771428157742 6.794662924648034 0.10222238116049885 0 0 1
6261 261 2 23.023662114083233 7.199705560491229 0.8448183780733779 0 0 1
6262 261 2 22.92201419203836 6.285531621602454 1.0792166496249382 0 0 1
5967 249 2 22.764066448119866 6.041938308690452 0.037572380785003176 0 0 1
5649 236 2 24.634937763466716 6.716101739947631 0.19911032529485187 -1 0 1
5650 236 2 23.78418187943636 6.592703573043035 0.46864138286871615 -1 0 1
5270 220 2 25.08718207894895 6.126755693580426 0.9809533854819877 -1 0 1
5266 220 2 25.99101199162347 6.614483763126166 1.3712669054742337 -1 0 1
5644 236 2 27.19386066688059 6.728941175798051 1.0889062463040848 -1 0 1
5265 220 2 26.358458644449005 6.535382638248691 0.48883075469041176 -1 0 1
5361 224 2 28.847372264203752 6.501471547263927 0.5089695527700382 -1 0 1
5363 224 2 30.407712057557486 6.095058023442849 1.3503145009342616 -1 0 1
5362 224 2 29.726043268583858 6.514979756575347 0.7456633684563233 -1 0 1
9684 404 2 31.623285034728998 6.258799959512685 0.6499722465951563 -1 1 1
5364 224 2 30.75664829976546 6.91486850635115 0.9398281578992093 -1 0 1
473 20 1 0.9837874154022858 8.441189883962108 0.5830884099217635 0 0 0
474 20 1 0.5586003656757819 7.797334529068286 1.1291382868768012 0 0 0
5673 237 2 0.3298932968960102 7.3266966668134135 0.18713463306561123 0 0 1
467 20 1 1.6624837114056976 7.448663498087413 1.1552952370801717 0 0 0
5693 238 2 2.668222443487855 7.411781392891111 0.6501420498317478 0 0 1
6673 279 2 2.0524112223196687 8.271196107083878 0.7621328694897838 1 0 1
5382 225 2 3.055485170139201 8.512015829924009 0.7792279605348061 0 0 1
5692 238 2 3.4549451383278127 7.783131852396063 0.16524472000776552 0 0 1
5381 225 2 3.9778169582244534 8.662405968115175 0.9573099456118322 0 0 1
1192 50 1 4.682748045943605 7.954425705092362 0.4396565140476365 0 0 0
1191 50 1 4.977613463793274 7.800688852200146 1.3289749662898118 0 0 0
6066 253 2 5.885785223479047 8.230963534170835 1.114637030418876 0 0 1
6067 253 2 5.970615483152589 7.82796009945106 0.18409888452763415 0 0 1
6064 253 2 6.930979239814546 8.706675023815215 0.9380259284425361 0 0 1
4969 208 2 7.669066825357482 7.69572701960676 0.9647075527918256 0 0 1
5058 211 2 8.663987886424128 7.830515098329009 0.43813139464112527 0 0 1
5051 211 2 9.629988919523695 7.995535896891709 0.4461310420220496 0 0 1
5050 211 2 9.107319896143208 8.70866813740297 0.7722441431021106 0 0 1
952 40 1 11.024811116849737 7.606525358734551 0.6371320898582499 0 0 0
953 40 1 11.755713033491933 7.952159282528239 0.11787025485965359 0 0 0
5445 227 2 12.391968740995196 7.893331751690535 0.9170925098540726 0 0 1
5444 227 2 12.88289684337858 7.7074570451317195 0.12725975507773804 0 0 1
5492 229 2 13.244583670462784 7.3956000527494234 1.2429148797001732 0 0 1
6485 271 2 13.54707795441823 8.355135707664157 0.7897024799574055 0 0 1
970 41 1 15.528676469398931 8.668699033813821 1.4235839539950188 0 0 0
5449 228 2 14.764949065945077 8.249999601907323 0.4949271390054188 0 0 1
5831 243 2 15.697951146528132 7.856943498215744 0.7070095501975712 0 0 1
5832 243 2 15.843824386418818 8.556665568758353 0.06435384402504234 0 0 1
5829 243 2 16.694881634773218 7.895353674355655 0.11920590568918973 0 0 1
5830 243 2 16.466783885785322 8.383585772035381 0.985505479466404 0 0 1
968 41 1 16.485435179250175 7.374249326901687 1.3543364927903392 0 0 0
6184 258 2 17.583845613833443 8.414413676295103 0.3021947186014596 0 0 1
6183 258 2 18.350608154389388 8.258332037288172 0.8974748749087581 0 0 1
6182 258 2 18.036485392667597 7.373282519222819 0.7426253299566902 0 0 1
6181 258 2 17.49576437311459 7.966391472170153 1.2911154852443436 0 0 1
6622 276 2 19.340433574698913 7.8826952396493155 1.1861363248102041 0 0 1
6621 276 2 19.37532770444048 8.020217630747277 0.25587732004622676 0 0 1
6553 274 2 20.31302862162378 8.678088615952442 0.1442583733354461 0 0 1
6554 274 2 20.317400883633876 8.172044421308472 0.9210987905998949 0 0 1
6616 276 2 21.254464927677063 8.704413713726012 0.84369956750032 0 0 1
6226 260 2 20.903161834517896 7.547567881556574 0.2766360261562572 0 0 1
6614 276 2 22.64523040806708 8.377883124245855 0.9275841286014345 0 0 1
5976 249 2 21.94049794754711 7.664414059723492 0.5341228181275843 0 0 1
1074 45 1 24.30196526336824 7.38428247806573 1.1005968120563718 0 0 0
5651 236 2 23.814493319303136 7.453189837479119 0.1280927806263621 -1 0 1
5653 236 2 23.30843659259447 8.41670837102304 0.15532085888680566 -1 0 1
5648 236 2 25.1889833064643 7.338695908710773 0.6544014365707473 -1 0 1
5647 236 2 25.78839847136714 7.78010372609618 1.3854035285114203 -1 0 1
5663 236 2 24.959951608761585 8.424778701545248 1.3447650283125394 -1 0 1
6334 264 2 27.421455420462095 7.425126952636855 0.11607750241013161 0 0 1
5646 236 2 26.486504128076007 7.917336424570151 0.6745945595814791 -1 0 1
1143 48 1 27.380798097849976 8.397395431220733 0.8236148723593167 -1 0 0
1145 48 1 28.889720120219124 8.195179427040317 1.2537274988645224 -1 0 0
1144 48 1 28.007989325840878 7.747121138340456 0.9765731341238797 -1 0 0
1146 48 1 29.483903874854576 7.480435186032023 1.1764480362745209 -1 0 0
6001 251 2 30.378854556360174 8.04602979815431 1.2782933326045787 -1 0 1
5359 224 2 29.85980414875111 7.664703045700247 0.041271970640443585 -1 0 1
5672 237 2 31.623016304624674 7.665028575679736 0.7284407899698998 -1 0 1
5366 224 2 30.888467486322877 7.82571926716061 0.10273751557594077 -1 0 1
6391 267 2 31.7779253387705 8.603054390669314 0.1571796547400233 -1 0 1
6676 279 2 0.7562897146044487 9.15912372968997 1.2119515441021729 1 0 1
6677 279 2 1.2564043531720175 9.706245179096712 0.6606891286477395 1 0 1
6718 280 2 0.4203804062894517 10.036009470574013 0.0431631301717126 0 0 1
6674 279 2 2.2642853480936163 9.126375881979888 1.070475786640943 1 0 1
6436 269 2 2.604475567785871 10.006108197044696 0.7770537078301343 0 0 1
5380 225 2 3.9522768446161383 8.774343112270692 0.039466117063965814 0 0 1
5379 225 2 4.182241341197303 9.65359162724612 0.4875590094078245 0 0 1
6437 269 2 3.1909284426165527 9.751618445751053 0.08439627719374068 0 0 1
5719 239 2 5.067316286275341 9.176962869177318 0.9801329505997207 0 0 1
5718 239 2 5.405513270388754 9.811612896907395 0.39108043944388643 0 0 1
6065 253 2 6.149055191441891 9.152929355704035 1.1489404426400114 0 0 1
6063 253 2 6.8043807567894 9.51836167569471 0.46850727438178635 0 0 1
5716 239 2 6.039905302614327 8.991981403367948 0.03152506565516687 0 0 1
6804 284 2 7.557893002485551 10.132779912654556 0.08349080182252058 0 0 1
6803 284 2 8.09238239575373 9.602880699237415 0.6521719510850085 0 0 1
5037 210 2 8.791289079463539 9.435738476246325 1.4337038432276001 0 0 1
5781 241 2 9.880984892590325 9.5483025606956 0.19961956796855376 0 0 1
5049 211 2 8.837091762680824 9.28697650686251 0.11450244748837392 0 0 1
5780 241 2 10.786178084441131 9.708892471418508 0.3731802322736993 0 0 1
5782 241 2 10.314710391695453 8.727615118184469 0.4356682357147797 0 0 1
5779 241 2 10.259392462695827 9.75753932125166 1.1684029786220178 0 0 1
5776 241 2 11.537152120099405 9.950762653474829 1.237234416828142 0 0 1
5783 241 2 11.03888505033321 8.922185736717488 1.0651496809907461 0 0 1
6483 271 2 11.964434417418019 9.225644559218562 0.5815651901136721 0 0 1
6484 271 2 12.795994305407897 8.805044969655091 0.3992110255016361 0 0 1
6487 271 2 13.438398426184495 9.741703545085224 0.48638823881809856 0 0 1
6486 271 2 13.9046267891848 9.161332971567884 1.1875440043196352 0 0 1
6522 272 2 15.897929207183259 9.617312208955035 1.175263512538063 0 0 1
6521 272 2 15.141127548612854 10.15438743775272 1.0572165518072625 0 0 1
5470 228 2 15.844205338660844 9.805451942258816 0.18937701655390501 0 0 1
5471 228 2 16.621028246735033 10.04909635464481 0.6978024741625466 0 0 1
5472 228 2 16.715341090093798 9.166275967097262 0.4002475123758703 0 0 1
6179 258 2 17.242539977315662 9.09234371383192 1.4224635749895607 0 0 1
6177 258 2 17.85735940600708 9.431938569475761 0.6280725423987474 0 0 1
6173 258 2 18.519354614910302 8.917682206233346 0.05013751462399794 0 0 1
6620 276 2 19.360192157127162 8.8078416912594 0.7452198478488196 0 0 1
6619 276 2 19.663627012440045 9.696618825072882 0.5125820001323976 0 0 1
6617 276 2 20.666350499752273 9.4500731211466 1.2056283290528618 0 0 1
6618 276 2 20.662914293271577 9.603672245887605 0.23295717395958335 0 0 1
7002 292 2 21.80756721568541 9.763234331151592 0.9838257757883099 0 0 1
6615 276 2 22.02962012742274 8.882632895456778 0.29590037079047266 0 0 1
6612 276 2 22.974911157656933 9.434277840349136 1.3740874582034652 0 0 1
7003 292 2 22.491869530365978 9.89430621409817 0.2520881888396065 0 0 1
5656 236 2 23.65008872237462 10.087636049013762 0.8857130455404802 -1 0 1
5655 236 2 23.423159458924985 9.643340664476765 0.07775849025062982 -1 0 1
5658 236 2 24.484207176264324 9.432669119465011 1.2534789190492654 -1 0 1
5654 236 2 24.039538902430515 9.012387623463768 0.4169884910609768 -1 0 1
5954 249 2 25.071348838167705 8.75766723618046 0.22577017154131498 0 0 1
5664 236 2 25.529849588403227 9.118135794612188 1.0779963348141715 -1 0 1
5988 250 2 25.06409559637525 9.912684176941148 0.29962022952525935 -1 0 1
6360 265 2 26.834303848852215 9.326976264466781 0.8571903217677274 -1 0 1
6358 265 2 27.79145874407371 9.559867409443099 0.42125029437444755 -1 0 1
1142 48 1 28.007589568586024 8.958527546540129 1.1835686454976786 -1 0 0
1141 48 1 28.68997927062191 9.560212721930156 1.4256434832407034 -1 0 0
5357 224 2 28.987094828371454 9.17339346109601 0.30904061815925704 -1 0 1
6388 267 2 30.098661766840756 9.135857452235603 0.7284348444273198 -1 0 1
6387 267 2 29.57390494736435 9.907405403354577 0.982332294986282 -1 0 1
6389 267 2 30.921652201247184 9.027405157109982 0.19103962643794362 -1 0 1
6392 267 2 31.670576638095646 8.777064268120585 1.0863137817702266 -1 0 1
6394 267 2 30.956076442186962 9.761342033058815 0.9335288529145308 -1 0 1
6678 279 2 1.0137276741564902 10.627317794902803 0.7314741780839132 1 0 1
6397 267 2 0.0852313058035939 10.19567690171123 1.1958179346944353 0 0 1
6434 269 2 2.7430075003669026 10.951600975158586 1.283914613249383 0 0 1
6435 269 2 2.272701322007688 10.88840487909922 0.421301882579773 0 0 1
5377 225 2 3.7384474346771177 10.312587757199651 1.2764578378199545 0 0 1