ITEM: TIMESTEP
1000
ITEM: NUMBER OF ATOMS
960
ITEM: BOX BOUNDS pp pp pp
0.0000000000000000e+00 3.2000000000000000e+01
0.0000000000000000e+00 3.2000000000000000e+01
0.0000000000000000e+00 3.2000000000000000e+01
ITEM: ATOMS id type xu yu zu
1 1 0.639141 0.861163 2.48333
2 1 0.356342 0.233215 3.13272
3 1 -0.330465 0.850426 3.43552
4 1 0.452971 0.887066 3.98158
5 1 -0.206601 0.833582 4.66143
6 1 0.576803 0.872805 5.23382
7 1 0.429696 0.043806 5.72343
8 1 -0.149515 -0.044214 6.4921
9 1 0.434156 0.522685 7.00932
10 1 0.068332 0.0253495 7.75754
11 1 -0.793017 -0.366009 7.91367
12 1 -0.291852 -0.542785 8.6978
13 1 -0.651803 0.0200788 9.37929
14 1 0.139609 -0.338197 9.74685
15 1 0.238685 -0.20995 10.6904
16 1 0.0565431 0.729074 10.7009
17 1 5.16791 0.252311 1.70462
18 1 4.79096 -0.551825 2.06554
19 1 4.12403 -1.01503 2.59846
20 1 4.473 -0.702805 3.42846
21 1 5.31578 -0.394858 3.71358
22 1 5.12588 -0.409674 4.6621
23 1 5.59752 -0.468911 5.50517
24 1 4.7319 -0.491185 5.94694
25 1 5.32192 0.0404074 6.50027
26 1 5.2983 -0.0169612 7.45778
27 1 5.46426 -0.0109004 8.40823
28 1 5.3785 -0.364767 9.29881
29 1 6.11506 -0.295351 9.90187
30 1 5.26078 -0.260222 10.3419
31 1 5.63461 -0.154279 11.1944
32 1 5.96603 0.704217 10.8993
33 1 10.7834 -0.735988 1.18904
34 1 10.2405 0.0278598 1.39609
35 1 9.95333 -0.599577 2.05093
36 1 10.6703 -0.602892 2.66499
37 1 10.0118 -0.337427 3.31943
38 1 9.78474 0.436629 3.83146
39 1 10.092 0.135051 4.70754
40 1 9.7293 -0.130387 5.53452
41 1 10.2048 0.701317 5.66996
42 1 10.2205 0.385926 6.59374
43 1 9.93687 0.220376 7.51398
44 1 9.957 -0.432939 8.23019
45 1 9.76462 0.00515343 9.04407
46 1 10.2991 -0.228328 9.79082
47 1 9.544 -0.634498 10.2217
48 1 8.85667 -0.263463 10.7967
49 1 16.0145 -0.523176 2.44976
50 1 16.4786 0.262602 2.16515
51 1 15.9144 0.721788 2.75223
52 1 15.2869 0.562854 3.44868
53 1 15.2636 -0.393778 3.40564
54 1 15.1597 -0.0573167 4.30379
55 1 14.7705 -0.424847 5.10869
56 1 14.5123 -0.570869 6.02305
57 1 14.9168 -0.593681 6.90048
58 1 14.7419 -0.265862 7.79976
59 1 14.4872 0.0977069 8.66314
60 1 14.7533 -0.414268 9.4345
61 1 14.6164 0.414746 9.90895
62 1 14.6082 0.0659672 10.8038
63 1 15.2599 -0.529163 10.4604
64 1 15.4573 -0.375317 11.3877
65 1 21.0142 -1.03006 1.41111
66 1 20.8665 -0.204853 1.87631
67 1 20.0883 -0.632216 2.24569
68 1 20.5155 -0.15539 2.95927
69 1 20.3715 -0.131092 3.90846
70 1 20.0626 0.00580219 4.79825
71 1 20.4531 0.288215 5.63957
72 1 20.5872 -0.632893 5.86691
73 1 20.7482 0.00686241 6.59039
74 1 20.776 -0.460632 7.43745
75 1 20.5311 -0.287543 8.33504
76 1 20.5523 0.00548655 9.24731
77 1 21.1647 0.19561 9.96974
78 1 20.6136 0.990712 9.99723
79 1 20.1755 0.13875 10.1982
80 1 20.2103 0.46049 11.0787
81 1 24.7866 0.870116 1.68118
82 1 24.7057 0.248596 2.40741
83 1 25.0799 1.13847 2.61346
84 1 25.2685 0.46108 3.26648
85 1 25.3348 0.28231 4.21171
86 1 25.1583 -0.159152 5.03858
87 1 25.7413 0.0971785 5.77619
88 1 26.126 0.235944 6.65157
89 1 25.4692 -0.0509634 7.30274
90 1 26.3619 -0.386074 7.41199
91 1 26.1571 0.0837747 8.22741
92 1 25.467 0.41263 8.81687
93 1 25.6566 -0.465991 9.14821
94 1 24.9837 -0.0990023 9.72047
95 1 25.6959 0.242861 10.255
96 1 25.3491 0.828399 10.9381
97 1 0.224992 6.06742 1.23733
98 1 0.632978 5.85909 2.10152
99 1 0.000746511 6.45031 2.48797
100 1 -0.00773736 6.0787 3.36822
101 1 -0.0704545 5.80024 4.2792
102 1 -0.136162 5.75344 5.23253
103 1 0.380116 6.18785 5.89998
104 1 0.0958621 5.38525 6.37878
105 1 0.330929 6.13885 6.93554
106 1 0.144057 6.33179 7.85324
107 1 0.050463 6.52567 8.78602
108 1 -0.035783 5.65097 9.1763
109 1 -0.235921 6.37204 9.76923
110 1 -0.259848 6.15633 10.711
111 1 -0.976654 6.40167 11.2957
112 1 -0.931336 6.37551 12.2571
113 1 4.73873 6.89609 2.56065
114 1 4.99085 5.98618 2.54806
115 1 5.44611 6.15479 3.37623
116 1 4.73335 5.48686 3.37759
117 1 4.82032 6.00955 4.1755
118 1 5.27661 6.02951 5.01198
119 1 6.16685 6.31724 4.85528
120 1 6.02021 6.84755 5.65001
121 1 5.51259 6.10524 5.97822
122 1 5.82227 6.14482 6.87452
123 1 6.00385 6.19452 7.82968
124 1 5.83324 6.15708 8.79057
125 1 5.29081 6.75623 9.31226
126 1 4.61329 6.1309 9.55542
127 1 5.38264 6.15882 10.1442
128 1 4.68329 6.37923 10.7618
129 1 10.2865 7.02706 2.05952
130 1 10.1897 6.10978 1.7598
131 1 10.1485 5.9951 2.71094
132 1 9.51465 6.09676 3.42124
133 1 10.0481 5.87815 4.17661
134 1 9.86379 6.21125 5.05138
135 1 10.0578 6.20448 5.98653
136 1 9.15596 6.20151 6.28118
137 1 9.82267 6.09311 6.99515
138 1 10.0002 5.89867 7.93306
139 1 10.1153 5.36033 8.7515
140 1 9.94543 6.16472 9.23757
141 1 9.367 6.0223 9.98712
142 1 10.1287 5.48789 10.1569
143 1 10.4818 6.32443 10.4442
144 1 10.0478 7.09674 10.0485
145 1 14.687 6.34407 1.04473
146 1 14.4149 6.05527 1.91627
147 1 15.1382 6.60793 2.22404
148 1 15.5123 6.33001 3.08408
149 1 15.2591 6.59967 3.97727
150 1 15.5035 6.06569 4.73607
151 1 15.7621 6.66691 5.46497
152 1 15.5964 5.75688 5.74835
153 1 16.2187 5.80744 6.48022
154 1 15.527 6.27528 6.9483
155 1 15.7116 6.23491 7.89357
156 1 15.2968 6.5327 8.72585
157 1 15.8348 6.01171 9.353
158 1 16.3966 5.90093 10.1459
159 1 15.6811 6.4917 10.4282
160 1 14.9721 5.85665 10.313
161 1 20.091 6.36719 1.75105
162 1 20.1915 6.43432 2.69325
163 1 20.1597 6.8335 3.54831
164 1 20.6052 5.9853 3.576
165 1 20.1261 6.17711 4.39202
166 1 20.4726 6.89971 4.89489
167 1 20.2333 6.24252 5.53277
168 1 20.871 6.7142 6.05564
169 1 20.3434 6.0731 6.55698
170 1 20.3486 6.84791 7.12987
171 1 20.7269 6.04905 7.51918
172 1 20.7817 5.92063 8.47253
173 1 20.9024 6.20968 9.37611
174 1 21.0228 5.74828 10.2312
175 1 21.0561 6.36662 10.9738
176 1 20.4844 6.09696 11.6891
177 1 25.1484 5.81117 1.3555
178 1 25.4289 5.8809 2.27457
179 1 25.5061 5.67367 3.19226
180 1 25.3722 5.5803 4.14025
181 1 26.0301 6.15291 4.54614
182 1 25.3027 6.31522 5.13909
183 1 25.4987 6.11574 6.04706
184 1 24.7952 6.24961 6.66014
185 1 25.6822 6.2097 7.06473
186 1 25.1149 5.54847 7.4769
187 1 24.5419 6.2925 7.68553
188 1 24.9777 6.06644 8.51035
189 1 25.3177 5.53828 9.2219
190 1 25.1358 5.62726 10.1695
191 1 25.1223 5.50553 11.1239
192 1 25.6177 5.26541 11.9247
193 1 0.447215 12.0686 2.2223
194 1 -0.336969 12.3349 2.76464
195 1 -0.747043 12.6654 3.56401
196 1 0.185747 12.4654 3.63285
197 1 -0.139659 12.2128 4.49098
198 1 0.317365 11.892 5.24782
199 1 -0.150135 12.6594 5.64214
200 1 0.0357637 12.3773 6.55049
201 1 -0.027498 12.0898 7.49999
202 1 -0.0604672 11.9621 8.46257
203 1 0.113097 11.216 9.0661
204 1 -0.580994 11.788 9.40656
205 1 -1.20223 12.5012 9.49888
206 1 -0.379479 12.7303 9.95856
207 1 0.0236066 11.9467 10.3335
208 1 -0.913517 11.7605 10.4662
209 1 6.49083 11.7312 1.52993
210 1 5.64906 12.1715 1.38021
211 1 5.61422 12.2622 2.33552
212 1 5.23402 12.3414 3.21665
213 1 5.08617 12.3529 4.17751
214 1 4.80085 11.6988 4.81669
215 1 5.41344 12.2558 5.30997
216 1 5.19885 13.0199 5.8405
217 1 4.76124 12.7818 6.67594
218 1 5.12588 13.2092 7.46419
219 1 5.636 13.2339 8.27572
220 1 5.02632 12.8216 8.88908
221 1 5.95358 12.6597 9.13938
222 1 5.33615 12.6709 9.8908
223 1 5.04369 12.6626 10.8096
224 1 5.75143 12.7996 11.4333
225 1 9.6197 12.4701 1.20762
226 1 10.0631 12.1217 1.98975
227 1 10.418 11.5278 2.66665
228 1 10.3089 11.5109 3.63162
229 1 10.2779 12.3727 4.06705
230 1 10.3828 12.9953 4.7757
231 1 10.1903 12.532 5.58347
232 1 10.4363 12.6776 6.50665
233 1 10.0611 13.1629 7.24778
234 1 10.5516 12.3513 7.50637
235 1 10.4548 12.9839 8.21351
236 1 11.2698 12.9563 8.69907
237 1 10.5211 12.7184 9.25142
238 1 10.158 12.4496 10.1018
239 1 10.036 12.4144 11.0607
240 1 10.7103 12.744 11.6524
241 1 14.289 12.1488 2.18693
242 1 14.8064 12.871 2.54282
243 1 15.6564 12.5316 2.79754
244 1 15.0752 11.9072 3.22332
245 1 15.6232 11.9912 4.01689
246 1 15.9939 12.2737 4.87351
247 1 15.6936 11.9407 5.72428
248 1 15.6772 11.8617 6.68384
249 1 16.0056 12.2961 7.47548
250 1 15.7335 11.53 7.9945
251 1 15.1083 12.2343 8.20539
252 1 15.8688 12.3423 8.76238
253 1 15.9015 11.6343 9.44201
254 1 15.1214 11.3883 9.93774
255 1 14.8643 11.2139 10.848
256 1 15.8111 11.3112 10.9523
257 1 20.1432 12.0868 2.9736
258 1 21.0341 12.2826 3.27404
259 1 21.398 11.5652 3.77029
260 1 20.6206 11.0991 3.41491
261 1 20.7077 11.151 4.36461
262 1 20.7308 11.8433 5.0183
263 1 19.8375 11.55 5.28174
264 1 20.5141 11.5212 5.96593
265 1 20.6269 11.7921 6.88727
266 1 20.392 12.2042 7.70635
267 1 20.2294 12.2315 8.64488
268 1 20.3151 11.9102 9.54332
269 1 20.363 12.3311 10.4155
270 1 20.0723 11.6968 11.1081
271 1 19.4566 12.1214 11.7164
272 1 19.6049 11.8627 12.6169
273 1 23.6688 11.9729 2.33637
274 1 24.2127 12.7615 2.37699
275 1 25.0219 12.3805 2.74569
276 1 24.449 12.0601 3.44428
277 1 24.9801 11.8996 4.21963
278 1 24.4778 11.7778 5.03628
279 1 25.4044 11.744 5.22973
280 1 25.1278 12.2287 6.00338
281 1 25.0637 12.2835 6.95592
282 1 25.7853 12.8782 7.15528
283 1 25.7787 12.6536 8.08925
284 1 25.1065 12.5844 8.76651
285 1 25.462 11.7277 8.98173
286 1 24.9282 11.9215 9.74986
287 1 25.0667 12.7565 10.1748
288 1 25.6753 12.4937 10.873
289 1 0.191234 16.4329 1.09534
290 1 0.396194 17.2256 1.58764
291 1 -0.0720701 17.4058 2.41441
292 1 -0.165053 17.9917 3.16537
293 1 0.443067 18.1663 3.87456
294 1 0.720749 18.86 4.47592
295 1 0.240301 18.408 5.17319
296 1 0.676654 18.2929 6.04188
297 1 0.324389 18.7709 6.81369
298 1 -0.0127028 18.6198 7.70773
299 1 0.0329798 18.2954 8.6276
300 1 0.261079 18.585 9.49986
301 1 0.0453426 19.468 9.77903
302 1 0.799755 19.2069 10.3099
303 1 0.212846 18.9512 11.0391
304 1 0.315446 18.2306 10.4349
305 1 4.07647 18.3784 1.65646
306 1 3.82462 18.0419 2.52093
307 1 4.73718 18.1798 2.83807
308 1 4.94092 17.5397 3.52026
309 1 5.40165 18.3119 3.83087
310 1 5.74196 17.8784 4.61689
311 1 5.10162 17.3783 5.11695
312 1 5.58781 17.829 5.82937
313 1 6.04049 17.6529 6.66049
314 1 5.57603 18.1425 7.36117
315 1 5.49311 17.9067 8.30324
316 1 5.80705 17.6179 9.19301
317 1 5.74186 17.7483 10.1825
318 1 4.84061 17.3878 10.1835
319 1 4.15931 17.6491 10.798
320 1 4.83857 17.9928 11.3814
321 1 9.00638 17.9022 1.57386
322 1 8.16269 17.8242 2.01723
323 1 8.81391 18.17 2.62917
324 1 9.72776 18.0891 2.37665
325 1 9.93244 18.4359 3.25762
326 1 9.99562 18.3291 4.21678
327 1 10.2911 17.6121 4.78702
328 1 10.9879 17.6404 5.46912
329 1 10.8078 17.6435 6.39215
330 1 10.6266 17.9321 7.28383
331 1 10.3237 18.2692 8.11821
332 1 11.114 18.46 8.65691
333 1 10.8073 18.1034 9.50319
334 1 9.84913 18.0574 9.33522
335 1 9.76808 18.4049 10.2257
336 1 10.6408 18.2483 10.5685
337 1 15.6185 17.312 2.52613
338 1 16.1178 16.8671 3.19549
339 1 15.6696 17.359 3.88226
340 1 14.8213 17.7388 3.6512
341 1 14.1242 18.1587 4.16924
342 1 14.8955 18.6767 4.38387
343 1 14.7586 18.5763 5.33587
344 1 14.8015 17.8486 5.95903
345 1 14.661 18.376 6.75259
346 1 15.0775 18.3173 7.61678
347 1 15.5523 18.3274 8.45244
348 1 15.8468 18.2137 9.35789
349 1 15.6492 18.5179 10.255
350 1 15.7903 18.1227 11.1137
351 1 15.6708 17.3044 11.6046
352 1 16.2248 17.8492 12.1346
353 1 20.0684 18.4852 1.48095
354 1 20.4157 17.8972 2.18028
355 1 20.3862 17.931 3.17038
356 1 19.5478 17.8604 3.66365
357 1 20.2738 17.802 4.26842
358 1 20.1922 17.8857 5.22109
359 1 20.9734 17.9443 5.81249
360 1 20.1249 17.9267 6.24779
361 1 19.7385 17.6511 7.05854
362 1 19.612 17.7117 7.99408
363 1 19.9354 18.0697 8.80066
364 1 18.9703 18.1815 8.64559
365 1 18.7918 17.8616 9.52087
366 1 18.2811 18.0085 10.3335
367 1 19.2258 18.097 10.4841
368 1 18.9804 17.1832 10.6025
369 1 24.0552 17.5403 1.34095
370 1 24.8383 17.9354 1.72409
371 1 24.9314 17.1264 2.25037
372 1 24.8973 17.886 2.80331
373 1 25.1145 18.176 3.69466
374 1 24.6437 18.8884 4.11267
375 1 25.1144 18.4605 4.84972
376 1 25.4298 18.1656 5.73373
377 1 25.3467 18.5981 6.60546
378 1 25.4161 18.1305 7.4553
379 1 26.0484 18.2325 8.18099
380 1 25.2049 18.1671 8.6149
381 1 25.9742 18.1899 9.19353
382 1 25.9455 18.0559 10.1212
383 1 25.4001 18.2299 10.8679
384 1 25.8968 17.5527 11.336
385 1 0.395635 24.3446 0.761106
386 1 0.124973 23.7927 1.51119
387 1 -0.158581 24.5173 2.08811
388 1 -0.0561294 24.4836 3.05159
389 1 -0.0361166 24.3366 4.00969
390 1 -0.22409 24.0929 4.91629
391 1 -0.411227 24.1449 5.85128
392 1 0.131105 23.9416 6.62764
393 1 0.0637621 23.7175 7.56207
394 1 -0.559859 24.0457 8.22395
395 1 0.328763 23.7862 8.53762
396 1 -0.409753 23.6374 9.13187
397 1 -0.675857 23.8473 10.0106
398 1 -1.57734 24.0976 10.1979
399 1 -1.0086 24.5029 10.8546
400 1 -0.114417 24.8518 10.8848
401 1 4.57327 24.2078 2.5098
402 1 5.47524 24.3646 2.80081
403 1 4.81205 24.668 3.43223
404 1 4.05496 24.4488 3.97241
405 1 4.85422 24.0468 4.27808
406 1 5.28772 23.9315 5.10998
407 1 4.69179 23.9601 5.84432
408 1 4.65382 23.6795 6.74768
409 1 4.71719 23.9869 7.64753
410 1 3.80123 24.0274 7.93787
411 1 4.45065 24.204 8.62488
412 1 5.19272 23.5919 8.55077
413 1 4.65174 23.46 9.3421
414 1 4.87239 23.9639 10.1299
415 1 4.93628 24.777 10.6273
416 1 4.67612 24.3826 11.4621
417 1 10.7252 25.1471 1.69299
418 1 10.5795 24.2803 1.33509
419 1 10.098 24.3204 2.1667
420 1 10.154 24.5758 3.09805
421 1 11.031 24.4269 3.45804
422 1 10.3595 24.3237 4.13489
423 1 10.2728 24.2714 5.09315
424 1 10.7582 23.774 5.75721
425 1 10.5961 23.8789 6.69406
426 1 10.9541 23.9086 7.57809
427 1 10.9183 23.9459 8.52026
428 1 10.3993 24.2353 9.27131
429 1 11.226 23.8009 9.49717
430 1 10.7638 23.8924 10.3212
431 1 10.3478 24.3242 11.0594
432 1 10.442 24.5251 11.9825
433 1 15.4573 23.6878 1.92628
434 1 15.3275 24.2404 2.68701
435 1 14.7693 25.009 2.61073
436 1 14.515 24.4443 3.34785
437 1 15.195 24.7081 3.98298
438 1 15.0771 23.8258 4.37766
439 1 15.1239 23.5943 5.33015
440 1 15.821 23.6174 5.99958
441 1 15.9817 24.3597 6.59303
442 1 15.2844 24.1812 7.24943
443 1 16.1837 23.9772 7.54456
444 1 15.5202 23.8477 8.23883
445 1 15.7143 24.0374 9.17319
446 1 15.9524 23.4861 9.92093
447 1 16.36 23.4625 10.7979
448 1 15.5847 22.9729 10.9932
449 1 19.1615 22.9636 1.89875
450 1 20.1141 23.1493 1.8787
451 1 20.1319 23.5326 2.76449
452 1 20.2695 24.2516 3.39844
453 1 19.4479 23.8702 3.70165
454 1 19.9208 23.4944 4.43108
455 1 20.0718 23.0111 5.23398
456 1 20.3698 23.7506 5.78074
457 1 20.1795 23.6847 6.73649
458 1 20.5143 23.5995 7.66179
459 1 20.5265 23.6916 8.63021
460 1 20.8942 23.8622 9.50636
461 1 20.1103 24.3919 9.45856
462 1 19.7866 23.5787 9.85517
463 1 19.5331 24.039 10.6657
464 1 20.4593 24.2231 10.5783
465 1 26.1073 24.253 1.51775
466 1 25.3266 24.4324 2.04923
467 1 25.5481 23.8378 2.76789
468 1 24.8819 23.4538 3.34074
469 1 25.7573 23.3948 3.71401
470 1 25.6382 23.6631 4.62053
471 1 25.4177 24.2003 5.37264
472 1 25.4748 24.2792 6.33619
473 1 25.8655 24.2815 7.22611
474 1 26.0552 23.9521 8.09058
475 1 25.301 23.4432 8.38154
476 1 24.9877 24.3474 8.29256
477 1 25.2911 24.6255 9.1495
478 1 24.9123 23.7497 9.2722
479 1 24.8514 24.2758 10.0631
480 1 24.9028 24.7122 10.9073
481 2 2.4571 2.37495 18.4297
482 2 2.89979 3.08839 18.904
483 2 2.97612 2.45363 19.6163
484 2 3.33163 3.00676 20.3298
485 2 3.05715 3.23191 21.2207
486 2 2.88069 2.54482 21.8642
487 2 3.13509 2.43574 22.7784
488 2 2.81104 2.83375 23.5844
489 2 2.23828 3.00954 24.3235
490 2 3.05352 3.33178 24.7591
491 2 2.55414 2.75109 25.348
492 2 2.95353 3.1804 26.1192
493 2 2.70232 2.83893 26.9984
494 2 2.16115 2.98377 27.8103
495 2 2.98269 2.52872 28.0216
496 2 2.28008 2.09844 28.5173
497 2 8.63084 3.04797 18.5711
498 2 8.23925 3.02338 19.4645
499 2 7.62133 3.41668 20.0942
500 2 8.19039 2.9053 20.6583
501 2 7.56178 3.02926 21.3825
502 2 7.25148 2.22021 21.8292
503 2 7.47826 2.25454 22.7789
504 2 7.93463 2.67689 23.533
505 2 7.70025 2.69483 24.4935
506 2 7.33087 3.0021 25.3565
507 2 7.32124 3.47647 26.1913
508 2 7.45842 2.78381 26.8438
509 2 7.99638 3.52556 27.2029
510 2 7.31064 3.84173 27.8413
511 2 6.98144 2.93731 27.9563
512 2 6.82813 3.1706 28.8719
513 2 12.6202 3.0002 19.8957
514 2 13.3395 2.72089 19.3033
515 2 13.226 2.17439 20.0922
516 2 12.77 2.57179 20.8801
517 2 13.2283 2.55223 21.7182
518 2 12.7125 3.22777 22.1816
519 2 12.7797 2.83719 23.0484
520 2 12.1859 3.35098 23.6007
521 2 12.8957 2.96096 24.1037
522 2 12.852 2.88244 25.0755
523 2 12.674 3.08119 26.048
524 2 12.5352 3.5324 26.9248
525 2 13.0068 3.98834 27.6306
526 2 13.6602 3.27699 27.7665
527 2 13.7939 2.47482 28.2961
528 2 13.0799 2.32072 27.6774
529 2 16.9701 1.88746 19.8287
530 2 17.7572 2.0779 20.3308
531 2 17.5797 3.00221 20.4722
532 2 16.9403 2.94201 21.1728
533 2 17.8488 3.08856 21.4603
534 2 17.9051 3.21913 22.4062
535 2 17.0996 2.71797 22.5266
536 2 17.5057 2.95331 23.3569
537 2 17.4853 2.85403 24.3001
538 2 17.3019 2.93089 25.2478
539 2 17.8698 2.49101 25.8614
540 2 17.6996 3.12437 26.5617
541 2 18.1375 3.98226 26.4731
542 2 18.2882 3.63659 27.3649
543 2 17.8135 2.93688 27.8513
544 2 17.15 2.36066 27.4982
545 2 21.9958 3.01765 19.6139
546 2 22.7463 3.55061 19.3941
547 2 23.4273 2.87814 19.54
548 2 22.9497 3.03729 20.3549
549 2 23.328 2.31595 20.8865
550 2 23.0647 2.26611 21.8085
551 2 23.15 2.36568 22.7505
552 2 22.9563 1.88553 23.5418
553 2 23.2868 2.6789 23.9509
554 2 23.0336 2.26291 24.773
555 2 22.951 3.04742 25.2914
556 2 23.0094 3.24679 26.2043
557 2 22.652 2.34407 26.2394
558 2 22.4826 2.56319 27.1501
559 2 21.7963 3.17141 27.4323
560 2 22.3652 3.75301 26.9275
561 2 28.3843 3.37877 18.7021
562 2 28.1293 3.06791 19.5915
563 2 27.8581 3.74551 20.1936
564 2 28.3166 3.30867 20.9329
565 2 29.1484 2.85996 20.7772
566 2 28.9443 2.86852 21.7383
567 2 28.3526 2.71185 22.4849
568 2 28.2747 2.77438 23.4573
569 2 28.9913 2.84049 24.1113
570 2 28.2166 2.90113 24.6901
571 2 28.315 2.36554 25.4801
572 2 27.9408 3.18647 25.777
573 2 28.3832 2.97833 26.6041
574 2 27.59 3.37716 26.9577
575 2 27.5152 2.48938 27.3301
576 2 28.1338 2.50753 28.0733
577 2 2.17836 10.264 19.5375
578 2 2.41666 9.39664 19.2169
579 2 2.59311 8.68699 19.8282
580 2 2.47718 9.41803 20.4534
581 2 3.14875 9.42033 21.1982
582 2 3.36969 8.57941 21.6404
583 2 3.26342 9.08001 22.454
584 2 2.94075 9.13981 23.3443
585 2 2.74757 9.1252 24.2791
586 2 2.75347 9.04403 25.242
587 2 1.84522 8.71803 25.3363
588 2 1.80507 8.63558 26.321
589 2 2.04004 9.55579 26.2609
590 2 2.59576 9.30641 27.0373
591 2 2.25726 8.43785 27.2473
592 2 1.79085 7.62061 27.0797
593 2 7.80574 9.83462 18.7038
594 2 7.68613 9.38681 19.5509
595 2 8.16802 8.87575 20.2248
596 2 7.38404 9.12683 20.7381
597 2 7.96365 8.65811 21.3345
598 2 7.11626 8.76683 21.7954
599 2 7.91335 8.68206 22.3449
600 2 7.75872 9.43883 22.9003
601 2 7.13927 9.11872 23.5584
602 2 7.26849 9.18149 24.4954
603 2 7.58181 9.28476 25.3744
604 2 7.45476 9.41422 26.3018
605 2 7.98889 9.88755 26.908
606 2 7.93539 8.9388 27.0956
607 2 7.06861 9.27012 27.3574
608 2 7.16472 8.79526 28.1985
609 2 11.8537 9.06054 18.7531
610 2 12.3021 8.29803 19.1404
611 2 13.041 8.64401 19.6617
612 2 12.5864 8.24209 20.3905
613 2 13.1109 8.64986 21.0588
614 2 12.4603 8.44652 21.7292
615 2 12.4181 9.09367 22.4329
616 2 12.6177 8.51074 23.166
617 2 12.7559 9.12095 23.9083
618 2 12.8739 8.85626 24.823
619 2 13.0666 8.30345 25.5824
620 2 12.8661 8.94401 26.2728
621 2 13.2433 8.35538 26.9509
622 2 13.8264 9.01931 27.3046
623 2 13.2565 9.21993 28.0323
624 2 13.3917 9.67939 28.8729
625 2 16.9813 9.30995 18.6185
626 2 17.1883 9.09021 19.5416
627 2 17.1993 9.08344 20.5105
628 2 18.1552 9.10884 20.4805
629 2 18.1294 8.46002 21.2003
630 2 17.538 8.89147 21.8437
631 2 17.1186 9.21162 22.673
632 2 17.7074 8.60148 23.1357
633 2 18.0153 9.3858 23.5922
634 2 17.4778 8.86842 24.1872
635 2 17.9651 8.60919 24.9769
636 2 17.3137 9.13639 25.4137
637 2 17.6187 9.08948 26.3196
638 2 17.3686 9.02811 27.2533
639 2 17.9431 9.29171 27.9674
640 2 17.9597 9.74092 28.8235
641 2 23.3206 8.60105 18.7692
642 2 23.1971 8.05509 19.5504
643 2 22.3834 8.52732 19.6292
644 2 22.3633 8.17517 20.5232
645 2 22.3587 8.56473 21.4068
646 2 23.0527 8.45122 22.0762
647 2 22.7326 9.2771 22.4179
648 2 22.639 8.84948 23.256
649 2 22.0278 8.64437 23.9516
650 2 22.5385 8.75038 24.7554
651 2 23.0821 8.19554 25.3211
652 2 22.6503 8.901 25.8224
653 2 22.6939 8.40462 26.6404
654 2 22.9953 8.5643 27.5456
655 2 22.3483 9.05967 28.0615
656 2 22.3915 8.29154 28.6187
657 2 28.1535 8.90041 17.8649
658 2 27.9653 8.28011 18.5765
659 2 27.9685 8.17681 19.5278
660 2 28.4224 7.58918 20.1423
661 2 27.9831 8.19179 20.7386
662 2 27.7499 8.49347 21.6096
663 2 27.4169 8.61529 22.5117
664 2 27.3678 9.23228 23.2362
665 2 27.2756 8.44926 23.7553
666 2 26.8491 9.10791 24.3002
667 2 27.0904 8.93216 25.2152
668 2 26.8454 9.31813 26.0579
669 2 27.1792 9.11805 26.9198
670 2 27.8059 8.82468 27.5731
671 2 28.5805 9.15034 28.0226
672 2 28.1228 8.42345 28.4795
673 2 3.31682 15.9333 19.6243
674 2 2.57367 15.4002 19.3427
675 2 2.97879 14.9452 20.0904
676 2 3.3972 14.5931 20.8909
677 2 3.51039 15.3029 21.5347
678 2 2.71439 14.8106 21.7783
679 2 2.22263 15.5523 22.1373
680 2 2.5518 14.9878 22.8516
681 2 2.34227 15.2212 23.747
682 2 1.90646 15.2266 24.5776
683 2 1.80508 15.1853 25.51
684 2 2.43678 14.5823 25.8777
685 2 2.20897 14.8658 26.7738
686 2 1.54449 15.5012 26.4963
687 2 1.74517 15.799 27.387
688 2 1.67016 15.6838 28.3461
689 2 7.34046 16.0812 19.3251
690 2 7.4146 15.514 20.0799
691 2 7.53958 15.5295 21.026
692 2 7.70092 14.6997 20.5618
693 2 7.50693 14.5194 21.4913
694 2 7.79236 15.2286 22.0545
695 2 7.21721 15.1266 22.8156
696 2 7.54192 14.8609 23.6874
697 2 7.55471 15.3763 24.4792
698 2 7.61589 15.4863 25.4432
699 2 8.37781 14.9662 25.7114
700 2 8.32871 15.7673 26.244
701 2 7.41408 15.6629 26.5173
702 2 7.48898 15.7117 27.4885
703 2 7.81355 15.1665 28.2241
704 2 6.8604 15.2188 28.3394
705 2 11.8569 15.0577 19.7672
706 2 12.6915 15.1553 20.2552
707 2 11.9855 15.7717 20.5513
708 2 12.2952 15.1879 21.2202
709 2 12.8213 14.3631 21.2441
710 2 13.1134 15.0301 21.9024
711 2 12.2208 14.6617 22.0733
712 2 12.6314 14.7377 22.9203
713 2 12.8706 14.632 23.8508
714 2 12.6173 14.701 24.7593
715 2 12.5478 15.6037 25.1146
716 2 12.5008 14.9285 25.811
717 2 12.7556 14.6176 26.6804
718 2 12.5033 14.3887 27.5799
719 2 12.9518 15.2166 27.7113
720 2 12.7968 15.4979 28.6071
721 2 18.9661 14.6952 19.0235
722 2 18.4525 14.3448 18.3041
723 2 17.9079 14.4854 19.0797
724 2 17.4629 14.7327 19.8912
725 2 17.3546 14.985 20.8054
726 2 17.8156 14.8337 21.6355
727 2 17.4927 15.4701 22.2662
728 2 17.2602 14.8767 22.9781
729 2 17.2769 14.8747 23.9456
730 2 17.1323 15.255 24.8162
731 2 17.1012 14.6983 25.585
732 2 17.9886 14.3866 25.7215
733 2 17.4469 14.4284 26.53
734 2 18.1846 14.6613 27.0856
735 2 18.3105 15.3882 27.7091
736 2 17.6913 15.6975 28.3808
737 2 23.269 13.7939 19.0668
738 2 22.6606 14.5251 18.8503
739 2 22.3378 14.5933 19.7548
740 2 22.099 14.903 20.6563
741 2 22.4791 15.0046 21.5271
742 2 22.6264 15.2044 22.4415
743 2 22.8267 14.9666 23.3445
744 2 22.3755 14.6517 24.1376
745 2 22.7288 15.2359 24.7966
746 2 22.0731 15.0669 25.4658
747 2 22.8745 15.4556 25.859
748 2 22.968 15.3831 26.8216
749 2 22.1423 15.0252 26.5282
750 2 21.7699 15.0438 27.4048
751 2 22.3501 14.5771 28.0077
752 2 23.2845 14.4624 27.8073
753 2 28.3958 15.3445 20.4915
754 2 27.8162 14.5927 20.5978
755 2 27.4522 15.4214 20.967
756 2 28.2439 15.8408 21.3549
757 2 28.7937 15.1099 21.6193
758 2 28.0168 14.5641 21.6919
759 2 27.8206 15.2584 22.3382
760 2 28.0619 15.5596 23.2451
761 2 28.0053 15.6229 24.2411
762 2 27.6845 15.3049 25.1342
763 2 27.6954 14.5991 25.8092
764 2 27.3345 15.3523 26.2916
765 2 28.0499 15.2343 26.9346
766 2 27.2843 15.1489 27.5163
767 2 27.6732 15.9102 27.9598
768 2 28.6314 15.9144 27.9673
769 2 1.29158 21.5375 19.15
770 2 1.97227 22.209 19.2225
771 2 2.36923 21.7304 19.947
772 2 2.02042 21.1614 20.6262
773 2 2.53045 21.7257 21.2046
774 2 2.20208 20.9211 21.6356
775 2 2.5072 21.5069 22.3291
776 2 2.7342 21.1586 23.2152
777 2 3.11385 21.3578 24.1023
778 2 2.95764 21.1841 25.042
779 2 2.01756 21.3146 25.2557
780 2 2.47239 21.05 26.0544
781 2 2.52897 21.4513 26.9322
782 2 2.85641 21.6882 27.8202
783 2 2.26234 20.9727 28.0852
784 2 3.00293 20.7851 28.6566
785 2 8.93293 20.0985 19.1708
786 2 8.84849 20.8867 19.7116
787 2 7.93641 21.0203 19.4664
788 2 8.12886 21.2751 20.3709
789 2 7.67064 20.7209 20.9966
790 2 7.66468 20.9075 21.9483
791 2 7.97953 20.8861 22.8787
792 2 7.70229 21.1974 23.7372
793 2 8.16028 20.3692 23.9426
794 2 8.32126 20.9279 24.7154
795 2 8.2752 21.7153 25.2699
796 2 8.38852 21.7234 26.239
797 2 8.28405 21.6516 27.2129
798 2 8.21331 21.8207 28.1782
799 2 7.72238 21.0245 28.0675
800 2 8.3629 20.5354 28.5951
801 2 13.9113 20.0782 20.0161
802 2 13.1793 20.2913 19.4354
803 2 13.2788 20.9947 20.0762
804 2 12.9609 20.6059 20.8838
805 2 12.1197 20.7314 21.3434
806 2 12.7195 21.3812 21.7067
807 2 12.5719 21.5136 22.6386
808 2 13.4956 21.302 22.757
809 2 13.0459 21.4347 23.5901
810 2 13.3086 21.356 24.5072
811 2 13.1563 21.4447 25.4448
812 2 13.1355 21.3571 26.3998
813 2 13.1094 21.6872 27.31
814 2 12.7101 20.9217 27.763
815 2 12.567 21.2753 28.6408
816 2 12.742 20.6 29.3103
817 2 17.6357 20.3741 19.2087
818 2 16.9651 21.0647 19.1641
819 2 17.2793 20.8403 20.0611
820 2 16.6251 21.2272 20.6325
821 2 16.5731 20.902 21.5244
822 2 17.1342 21.4675 22.0714
823 2 17.2012 21.302 23.0164
824 2 17.4265 21.3421 23.9525
825 2 18.2544 21.5378 24.4032
826 2 17.6731 21.2693 25.1211
827 2 17.4691 21.1259 26.0438
828 2 18.412 21.2502 26.1309
829 2 18.0112 21.9073 26.7258
830 2 17.8269 20.9972 27.0259
831 2 16.889 21.0774 27.0262
832 2 16.7394 20.9699 27.9798
833 2 23.5933 20.754 19.207
834 2 22.8169 21.2331 19.4944
835 2 22.2901 21.7773 20.0648
836 2 21.6595 21.3704 20.6777
837 2 22.246 21.7218 21.3611
838 2 22.9152 21.2715 21.8807
839 2 22.4581 21.5157 22.7102
840 2 22.6006 20.6957 23.1793
841 2 22.6323 20.511 24.1317
842 2 22.8611 20.8206 25.0293
843 2 22.8855 21.0967 25.9577
844 2 22.3425 21.7374 26.4642
845 2 23.1949 21.5418 26.8775
846 2 22.5815 21.74 27.6091
847 2 22.0956 21.3809 28.3649
848 2 22.721 20.8717 28.8767
849 2 28.5651 21.8592 18.4354
850 2 28.6847 21.7602 19.3869
851 2 28.3303 21.0516 19.9307
852 2 28.0912 21.4498 20.7748
853 2 28.1197 20.6635 21.323
854 2 28.3942 21.4071 21.8839
855 2 28.1173 20.6936 22.471
856 2 28.0188 21.2007 23.2722
857 2 27.5465 21.051 24.0904
858 2 28.2539 21.3765 24.6504
859 2 28.0134 20.7959 25.3923
860 2 28.4442 21.3177 26.058
861 2 28.3193 20.7899 26.8572
862 2 28.6269 21.1598 27.6962
863 2 28.8254 21.7591 28.4362
864 2 28.494 21.0102 28.9367
865 2 3.01187 27.3363 18.4091
866 2 2.39986 26.909 19.0038
867 2 2.80206 27.1718 19.8527
868 2 2.77224 27.2739 20.8083
869 2 2.58979 27.5859 21.7073
870 2 2.87454 27.0533 22.4479
871 2 3.04095 26.7555 23.3428
872 2 2.37195 27.3897 23.5846
873 2 2.84891 27.4458 24.407
874 2 2.57688 27.9064 25.2128
875 2 2.5418 27.0066 25.547
876 2 2.14048 27.3551 26.3387
877 2 2.51367 26.6569 26.8766
878 2 1.77737 26.9478 27.408
879 2 2.07005 26.6833 28.2807
880 2 2.47042 26.2806 29.0531
881 2 8.70881 27.3123 20.4257
882 2 8.10097 26.832 19.8632
883 2 7.15926 26.6843 19.8821
884 2 7.14223 27.4791 20.4127
885 2 6.88792 27.2261 21.3125
886 2 7.82948 27.2565 21.5471
887 2 7.35987 27.2921 22.3646
888 2 7.40797 27.1315 23.3111
889 2 7.35079 26.917 24.2451
890 2 7.44489 27.217 25.1577
891 2 7.89742 26.6858 25.8125
892 2 6.93876 26.703 25.9445
893 2 6.8058 26.5992 26.9007
894 2 7.75408 26.6945 26.997
895 2 7.70613 27.4168 27.6325
896 2 7.62689 26.6683 28.2376
897 2 12.758 25.9349 19.4131
898 2 12.5389 26.8197 19.795
899 2 11.9988 26.8712 20.5586
900 2 12.7889 27.1369 21.0464
901 2 12.4685 27.541 21.8738
902 2 12.4126 26.8219 22.5116
903 2 13.341 27.0007 22.5918
904 2 13.0892 26.9731 23.5089
905 2 12.559 26.7162 24.2636
906 2 12.8564 26.9044 25.1637
907 2 12.6958 26.5585 26.0443
908 2 12.8967 27.4842 26.054
909 2 13.2074 27.2757 26.9259
910 2 13.6502 27.4166 27.7755
911 2 12.7052 27.4939 27.9623
912 2 12.1294 27.0098 28.5609
913 2 17.4682 27.2998 19.2526
914 2 17.6323 27.8674 20.003
915 2 18.3106 28.5571 20.1571
916 2 18.2249 27.9573 20.9054
917 2 17.3464 27.5464 21.0372
918 2 17.1068 27.9152 21.8992
919 2 17.3317 27.8636 22.8416
920 2 17.624 27.619 23.7228
921 2 17.0671 27.2911 24.427
922 2 17.5156 27.342 25.2638
923 2 17.3264 26.6517 25.8904
924 2 17.1796 27.4373 26.4186
925 2 17.9455 27.3517 27.0114
926 2 18.5971 27.0134 27.6317
927 2 17.7869 27.1775 28.1472
928 2 18.2377 27.8906 28.6005
929 2 23.4782 28.1336 19.236
930 2 23.008 27.376 19.6178
931 2 22.5159 28.1363 19.9523
932 2 23.1385 28.1263 20.6861
933 2 23.0199 27.7557 21.5669
934 2 23.1474 28.2453 22.3935
935 2 23.0448 27.6308 23.1403
936 2 23.1017 27.9054 24.0625
937 2 23.1786 26.9777 24.3241
938 2 22.9469 27.3332 25.166
939 2 22.3589 27.62 25.8844
940 2 22.4359 26.7483 26.2805
941 2 23.3643 26.9017 26.1007
942 2 23.595 27.4572 26.8576
943 2 23.0879 26.7738 27.3503
944 2 22.8183 27.6807 27.5909
945 2 27.3136 26.1583 19.2407
946 2 27.6275 26.4433 20.1117
947 2 28.1956 27.1979 19.9059
948 2 28.0887 27.474 20.8293
949 2 28.0605 28.1342 21.5307
950 2 27.486 27.3694 21.7137
951 2 27.3119 27.3852 22.6538
952 2 27.554 27.4223 23.5884
953 2 27.1443 27.3139 24.441
954 2 27.7308 27.4379 25.1491
955 2 27.9193 27.6502 26.0377
956 2 28.1935 26.9938 26.653
957 2 27.7031 27.6186 27.1938
958 2 28.1925 26.983 27.7085
959 2 28.4362 27.5377 28.4484
960 2 28.0422 26.8475 28.9856
ITEM: TIMESTEP
2000
ITEM: NUMBER OF ATOMS
960
ITEM: BOX BOUNDS pp pp pp
0.0000000000000000e+00 3.2000000000000000e+01
0.0000000000000000e+00 3.2000000000000000e+01
0.0000000000000000e+00 3.2000000000000000e+01
ITEM: ATOMS id type xu yu zu
1 1 1.18042 1.1871 4.7997
2 1 1.09054 1.36047 5.80506
3 1 0.276999 0.895834 5.62569
4 1 1.01463 0.305739 5.71137
5 1 1.74986 0.335076 6.29307
6 1 1.49602 0.599483 7.20651
7 1 0.731096 1.13488 7.02814
8 1 0.329388 0.265287 7.11591
9 1 -0.550259 -0.0496475 7.47943
10 1 -0.969252 0.79621 7.61603
11 1 -0.167973 0.666625 8.08833
12 1 -0.264281 -0.167351 8.56405
13 1 0.194378 0.436586 9.17391
14 1 0.833915 0.456945 8.4736
15 1 1.00423 -0.414924 8.86607
16 1 0.802128 -0.556897 7.9477
17 1 5.66984 -1.22416 6.396
18 1 5.64853 -1.2405 5.4278
19 1 4.79096 -0.984039 5.71725
20 1 4.39626 -0.17134 5.44498
21 1 5.09886 0.312398 5.09522
22 1 5.51436 -0.202974 5.78574
23 1 4.85167 0.00757207 6.52591
24 1 5.7756 0.186496 6.65366
25 1 6.42695 0.891236 6.86401
26 1 7.10815 0.325996 6.47253
27 1 6.80016 -0.485155 6.81562