LAMMPS data file via write_data, version 27 Jun 2024, timestep = 100000, units = lj

960 atoms
2 atom types
900 bonds
1 bond types

0 32 xlo xhi
0 32 ylo yhi
0 32 zlo zhi

Masses

1 1
2 1

Pair Coeffs # lj/cut

1 1 1
2 1 1

Bond Coeffs # fene

1 30 1.5 1 1

Atoms # molecular

433 28 1 22.03900465620431 0.8622287531734546 2.6749239151638107 -1 1 1
753 48 2 21.36893799856597 0.34745450942311823 1.7209519884520508 0 1 2
436 28 1 22.338492617859288 1.2484729151937735 1.3541487175366578 -1 1 1
360 23 1 23.60773137443102 0.6583317337439226 1.0247333248904227 -1 1 1
361 23 1 23.3552779805852 1.552403031258925 1.1903243038788531 -1 1 1
362 23 1 23.704052736742653 1.6540152079885255 2.0326064556535015 -1 1 1
518 33 2 23.51044258847687 30.878332749094515 1.8409588723216634 -1 -1 1
266 17 1 23.786959594134338 0.9936842297924767 0.09230379844906898 0 0 1
267 17 1 24.37995533573693 0.25479663372362676 0.2738284241191301 0 0 1
359 23 1 24.42418470825432 1.1275295840451054 1.2670519336182526 -1 1 1
268 17 1 24.603693796437064 0.03518575563237469 1.217588781867821 0 0 1
413 26 1 25.728721202024555 0.4046031909210116 31.904523778359078 -1 0 0
259 17 1 26.066223201279296 0.4281388232203535 30.55429920244843 0 0 0
434 28 1 22.830797592278827 1.2894724694728452 3.035580675260183 -1 1 1
435 28 1 22.5106344126145 1.7553929811282682 2.264251270659639 -1 1 1
357 23 1 23.79469164481315 1.9929043494405856 0.41371288638087755 -1 1 1
358 23 1 24.293934959281437 2.0739219357339223 1.2384304218976203 -1 1 1
415 26 1 25.374356956661753 1.8715370635885211 31.774369231239387 -1 0 0
416 26 1 24.95121569278775 2.6186159907498405 0.13923948292547778 -1 0 1
414 26 1 26.00747275370982 1.2065571529243866 31.417103168448232 -1 0 0
20 2 1 22.175666640308993 22.81117300429912 31.97023284382883 0 -1 0
23 2 1 23.31210650633082 21.462124057972105 0.7243140357148014 0 -1 1
22 2 1 23.684384004760616 22.29395560903744 0.9403732347569638 0 -1 1
30 2 1 24.488080590667266 20.8581547176249 31.95958036124159 0 -1 0
643 41 2 26.094684291092754 20.739413528667075 31.762217540680737 0 -1 0
806 51 2 24.917821926406383 21.81517850110034 31.48133091255732 0 0 1
808 51 2 25.32088911678231 21.302238122426242 30.23258529440303 0 0 1
642 41 2 26.70688366675768 21.524255829562037 31.827984441677785 0 -1 0
801 51 2 27.58941124100244 22.087768716121747 1.1340928812660547 0 0 2
452 29 1 24.159805538707616 22.988947785176205 0.3224714974939363 -1 0 1
463 29 1 23.11601094034482 23.30087960461799 1.80299413325259 -1 0 1
29 2 1 24.561598292173894 21.19643327753381 0.8660114299585444 0 -1 1
21 2 1 23.06688304753512 22.631810589906596 0.2893188689288838 0 -1 1
28 2 1 24.210213233013672 21.51947308556475 1.6825340077146427 0 -1 1
805 51 2 25.029609690634047 22.747824913369517 31.753311242554165 0 0 1
802 51 2 26.998624733723833 21.34413148332354 1.0960123564172202 0 0 2
803 51 2 26.43837253606583 22.07889712721729 0.922315640212594 0 0 2
804 51 2 25.695320142048256 22.45630040686786 0.3491029649588432 0 0 2
923 58 2 27.754993387947074 23.08984739820924 0.09316116897077364 -1 0 1
898 57 2 18.66377674343485 25.28417196905584 1.6244376563754996 0 0 2
897 57 2 18.28263171933924 25.123984082092726 0.7094348228789359 0 0 2
136 9 1 20.162802376859965 24.229148964309687 1.0070977989483305 0 -1 1
135 9 1 20.097906195359805 23.448117481158437 0.38958969974848445 0 -1 1
129 9 1 21.236494654054745 24.710187916372025 0.6249895346779292 0 -1 1
130 9 1 20.60094225207576 24.42571582685452 31.948212749719413 0 -1 0
462 29 1 22.34330128159276 23.32891812437867 1.2448892703534225 -1 0 1
242 16 1 22.697057009307194 24.382200208532417 1.2734409440757295 0 -1 1
451 29 1 24.688617541948858 22.241009562016558 0.5846695441829017 -1 0 1
453 29 1 24.196020218676505 23.906276992047754 0.37030818864565895 -1 0 1
454 29 1 24.27483290831475 23.946727707329735 1.2766966105175919 -1 0 1
450 29 1 24.52487546539569 22.933157410092385 1.2743746094619377 -1 0 1
920 58 2 25.91727729073782 23.30339192175795 31.823668375649497 -1 0 0
182 12 1 25.394887352094234 24.18375635376622 1.2721843442122662 0 -1 1
922 58 2 26.76160384266991 23.177898503013903 0.354636575705356 -1 0 1
921 58 2 26.20240644706033 23.83191711071026 0.6736294472334309 -1 0 1
181 12 1 26.159073764251925 24.732917135375704 1.575866873689381 0 -1 1
925 58 2 27.980017010331615 24.557354904957528 1.1704865890237433 -1 0 1
924 58 2 28.05089031463578 23.705159613490714 0.8283259739861548 -1 0 1
926 58 2 28.944172895327203 24.20241698809479 1.3482094074478839 -1 0 1
899 57 2 17.762329525415094 25.093710909866704 1.9791477063769676 0 0 2
142 9 1 18.635985929551694 26.154620117122388 0.9257418093823719 0 -1 1
141 9 1 19.10246221459146 25.628125068301042 0.25104410252267867 0 -1 1
138 9 1 19.649467821720233 25.914124086476004 1.2649097670436602 0 -1 1
131 9 1 20.09683196324794 25.148068995494437 0.28811028980324194 0 -1 1
497 32 2 20.767023414432735 26.623748612788734 0.8695378004668047 -1 -1 1
425 27 1 20.774395413742607 26.427445464936728 31.629021351898285 0 0 0
426 27 1 20.91742935994614 25.4719389911662 31.712051574358725 0 0 0
459 29 1 22.515346601402552 24.66761002338156 0.13433945258166569 -1 0 1
770 49 2 21.597246877854655 25.836635416043052 0.9732724134912977 -1 0 1
769 49 2 22.408132281602537 25.37397674474953 1.026588846599696 -1 0 1
118 8 1 22.71287404712379 26.366483046931062 1.355292287461375 0 -1 1
774 49 2 22.144486219778887 25.461850147211045 31.55686369083214 -1 0 0
456 29 1 23.851362524402177 25.542947863917494 1.3154458184698539 -1 0 1
455 29 1 24.429751770677083 24.87686710685876 1.6122991083251765 -1 0 1
177 12 1 25.2311016412359 25.398264032574637 1.2711168439217533 0 -1 1
533 34 2 25.98353246037232 24.91643574558147 0.4812819684909401 -1 -1 1
534 34 2 25.877976035494775 25.944594546734944 0.5596190510869179 -1 -1 1
208 13 1 27.03633314818324 24.515475988737645 0.9035628921666535 -1 -1 1
207 13 1 27.52145957774456 25.296278095076133 0.6490343066940206 -1 -1 1
628 40 2 28.276539362059296 25.101094228150103 1.963446583848601 -1 -1 1
629 40 2 28.635136942700562 25.59606419887529 1.20966739916679 -1 -1 1
631 40 2 28.394273223862566 25.882049143247116 0.12378880483049272 -1 -1 1
630 40 2 28.265369972649932 26.474493867141206 0.9487429678856213 -1 -1 1
144 9 1 16.855958839133958 26.83889668812419 1.0784478248949503 0 -1 1
143 9 1 17.71952322140128 26.46147860477163 1.0479436234948911 0 -1 1
698 44 2 18.2578017881214 28.327118228695642 0.7709349213217105 -1 0 2
139 9 1 19.622477478137792 26.836040035450587 0.9796332367098457 0 -1 1
697 44 2 19.18118919055001 27.89987660880563 0.6377902648546219 -1 0 2
719 45 2 19.42708512655091 27.190911398036565 2.5440561414334306 -1 0 2
499 32 2 19.984918179127945 27.749963843022417 1.2276593043476909 -1 -1 1
500 32 2 20.249036429864923 27.528783929369034 0.36673441726155365 -1 -1 1
501 32 2 20.75227152767021 27.41026542464378 31.541685996172646 -1 -1 0
771 49 2 21.790097200075667 26.788993885399584 0.9909162748943147 -1 0 1
772 49 2 22.58053481145177 26.695092600892842 0.3755813390865657 -1 0 1
235 15 1 23.797776082469447 27.9472559740976 1.0723457994481476 -1 0 1
119 8 1 23.654969949953138 26.5302056795814 1.2743311970200475 0 -1 1
120 8 1 24.57427750540812 26.16485375501116 1.3791173278028552 0 -1 1
535 34 2 26.117260980121433 26.836399123269242 0.3284137056084217 -1 -1 1
537 34 2 25.325421902302754 27.511918007282645 0.20274893714556175 -1 -1 1
536 34 2 25.33543212235976 26.886373115425986 0.9530036861213198 -1 -1 1
237 15 1 24.269048514154946 26.21175004947071 0.40869859718546825 -1 0 1
664 42 2 27.045471763817478 26.505804737142274 0.957318863712526 0 -1 1
202 13 1 29.396491232711817 26.78653548476279 0.025804382809224497 -1 -1 1
199 13 1 28.53275348054274 27.836536874972616 1.0699762922104228 -1 -1 1
200 13 1 29.18646435244266 27.1161972548843 1.0655150834064326 -1 -1 1
198 13 1 27.71068288576903 27.28600392936112 1.099481160658211 -1 -1 1
201 13 1 29.488795454491964 26.224445085548897 0.7992547553031689 -1 -1 1
696 44 2 18.9633089285871 28.475033273364556 31.88330462976231 -1 0 1
695 44 2 19.322713090089 28.936757445573964 31.1742132894881 -1 0 1
599 38 2 20.423272107892863 28.709055186281848 1.5005136068707243 -1 -1 1
598 38 2 19.480935137267778 28.636546472964774 1.3850827817891236 -1 -1 1
597 38 2 19.85652363054475 28.69308988108405 0.44525050540415245 -1 -1 1
871 55 2 20.56519963003531 29.887845693956965 0.1856865163303062 -1 0 1
65 5 1 21.777986529781582 28.59856197396902 31.910218486925967 -1 -1 0
67 5 1 22.179771128010174 28.10304639289093 0.961570584094917 -1 -1 1
66 5 1 22.15119874813984 27.711920300177415 0.09614936174540585 -1 -1 1
234 15 1 23.37686201551149 27.642758471439066 0.26030118925778434 -1 0 1
538 34 2 25.670354196280037 27.291920257902504 31.40944708811339 -1 -1 0
837 53 2 24.793827020883043 28.480481267973683 0.15202685842092323 0 0 1
121 8 1 24.568261995720242 27.079270986113116 1.7483767924893032 0 -1 1
159 10 1 25.396472504263166 29.07555666023933 1.1680912088673832 0 -1 1
160 10 1 25.017927008431897 28.188418360803762 1.2098765390185042 0 -1 1
158 10 1 25.649143270548404 28.86997402291147 2.05107747841707 0 -1 1
665 42 2 27.321579539308335 27.151859335716175 0.1973000856787898 0 -1 1
196 13 1 28.210445717350343 28.57748764375231 1.8881738942122979 -1 -1 1
668 42 2 27.963428018975783 29.11148702899689 0.798405629665052 0 -1 1
667 42 2 27.40234570362638 28.76265044902328 0.10931491429476532 0 -1 1
195 13 1 28.7447013840389 29.35451733835018 1.8852631418089432 -1 -1 1
193 13 1 28.72307616280058 28.59107068601849 0.24002584654247108 -1 -1 1
694 44 2 19.052304454769253 29.69278459620017 30.648661452258526 -1 0 1
873 55 2 19.692769374583847 30.485564686478234 0.3226299864727251 -1 0 1
874 55 2 18.997517176590247 30.89099450024734 31.813118142680324 -1 0 0
872 55 2 19.744896443334582 29.638987749132845 31.830325418870423 -1 0 0
870 55 2 21.49272265301152 29.710301919385895 0.25778375040077595 -1 0 1
525 33 2 21.149792746335454 30.334034564819103 1.0924797970755005 -1 -1 1
866 55 2 23.160748898361845 29.804427504901106 0.7553911998807536 -1 0 1
865 55 2 22.60720204456822 29.410815484093813 0.10024395483065317 -1 0 1
868 55 2 22.628329177153173 29.251186622167168 1.6424411193386395 -1 0 1
835 53 2 24.35344803540371 28.894171692118054 1.4743036165327483 0 0 1
834 53 2 24.36850641280642 29.747055920730805 0.9667082998160498 0 0 1
836 53 2 24.028940608964252 28.856910994581032 0.5780881505090716 0 0 1
322 21 1 25.764352625206598 30.126284274897102 1.3838804292352938 -1 -1 0
858 54 2 25.332327126703937 29.815512830275377 0.24390639803129824 0 0 1
857 54 2 24.548215883010236 30.3806059094117 0.17701113997083487 0 0 1
327 21 1 26.930067258249007 29.705389092849135 31.969764332241663 -1 -1 -1
326 21 1 26.789236655919684 30.695318451536725 31.839532236045716 -1 -1 -1
335 21 1 28.572798766845448 30.074299557461806 0.9301347697228947 -1 -1 0
334 21 1 28.88046618758233 30.421384758962986 1.8120491942147932 -1 -1 0
875 55 2 18.799836173190982 31.204655408740663 0.6915832483729931 -1 0 1
876 55 2 19.060917828655278 0.044520657626061735 1.1309025288242034 -1 1 1
526 33 2 20.933866481242543 31.24040950907974 1.2464445607350019 -1 -1 1
869 55 2 22.052126877911782 29.74891466679581 1.0263993036721215 -1 0 1
850 54 2 21.715006017182898 0.681378991818163 0.8672370103989415 0 1 1
527 33 2 20.992267131080272 31.96264296561679 0.6908085327262801 -1 -1 1
851 54 2 22.012329722553364 31.786267865015933 0.6188595564604072 0 0 1
368 23 1 22.75081051133543 0.15652638081177211 1.5034629544023093 -1 1 1
519 33 2 23.433361747258846 31.524492877337284 1.099827129921291 -1 -1 1
852 54 2 21.650784421395297 31.802397558477086 31.726718543051877 0 0 0
833 53 2 24.42268071700785 30.63720519429391 1.4382812420358184 0 0 1
338 22 1 23.71724064513173 31.518456403807683 31.79444603138085 -1 0 0
520 33 2 23.231031374390017 30.84268464767367 0.4991638071916985 -1 -1 1
323 21 1 26.20625900393976 30.546407201270732 0.6023919631700593 -1 -1 0
337 22 1 24.623853378827857 31.480449405084062 31.63237446015294 -1 0 0
262 17 1 24.977398846686416 0.9393204754324116 31.211396483185755 0 0 0
257 17 1 26.47156361382216 31.80908097912815 31.32549977727502 0 -1 0
258 17 1 26.358365606341792 31.566680555138166 30.337627342975978 0 -1 0
324 21 1 26.78294221316515 31.291894764830833 0.896973183176104 -1 -1 0
325 21 1 27.226730840335517 31.49706722476596 0.06411918730307586 -1 -1 0
333 21 1 27.9151871647764 30.56877233286912 1.714816751001698 -1 -1 0
767 48 2 20.769151219564858 31.58957926864841 2.2631587759904273 0 0 2
477 30 1 20.31814643523927 0.0055725469917139074 4.126596582606721 -1 1 1
755 48 2 22.0023797261265 31.609907542018437 2.5615272928976447 0 0 2
367 23 1 23.182388287841505 0.5712340807530345 2.2894723901710297 -1 1 1
363 23 1 24.60811780019344 1.7790404117988887 2.21741936395788 -1 1 1
410 26 1 25.465673395828478 31.55769581403733 2.040062914153513 -1 -1 1
366 23 1 23.834056702606272 31.869459832183395 2.09427889258446 -1 0 1
684 43 2 24.68890466787266 0.48583597512825477 4.594906078832797 -1 0 1
412 26 1 25.907431208354218 31.493569807468493 0.18559700826667636 -1 -1 1
409 26 1 25.602268050062815 0.05176295972103468 2.8068322494365834 -1 0 1
411 26 1 25.455904807510834 31.30587720815032 1.0955936408590141 -1 -1 1
271 17 1 26.129036386160546 1.1704784880681776 1.0402057504092952 0 0 1
270 17 1 25.571255705370735 0.9661738816280948 1.7322605416610304 0 0 1
364 23 1 24.156346224287145 1.385282212758656 3.012818246830362 -1 1 1
365 23 1 24.21838730865508 0.6524980931632073 2.3904083778238676 -1 1 1
269 17 1 25.467962191646482 0.3831250033780501 1.0121764910012916 0 0 1
19 2 1 21.408732113403214 23.08679718303898 31.479099582546617 0 -1 0
24 2 1 22.94242261616589 21.283044167820915 1.601731305388712 0 -1 1
26 2 1 23.931136649322116 21.719681884248324 2.7412144676191157 0 -1 1
25 2 1 23.01847215558591 21.649380610042343 2.4748779675951114 0 -1 1
644 41 2 25.546094110262977 21.391812754789537 0.22972928275217314 0 -1 1
647 41 2 25.935476759922295 21.719156023917293 2.146947691366441 0 -1 1
641 41 2 27.58067084165832 22.004470498404498 31.82648612543563 0 -1 0
651 41 2 27.518441602479935 21.75836314750532 4.486341582145375 0 -1 1
256 16 1 18.76497185167327 24.148289917554827 0.9603191642987845 0 -1 1
254 16 1 19.016572830154093 23.282335683762817 1.4424270482375618 0 -1 1
255 16 1 18.211335214025503 23.80339355550702 1.6276142514896597 0 -1 1
253 16 1 19.973016705699468 23.238080576528898 1.524530534573511 0 -1 1
464 29 1 22.74450908078687 22.404511828578855 1.4336862541965498 -1 0 1
18 2 1 21.349206979340977 23.803762346542452 0.16919332387363256 0 -1 1
17 2 1 21.327363512947237 23.478217136912754 1.0865699327974405 0 -1 1
27 2 1 23.755310502315265 22.31693593789846 2.0226577688556815 0 -1 1
186 12 1 24.7759810795613 22.834582948101524 2.2971251092990737 0 -1 1
645 41 2 25.741408467802874 21.3139603123198 1.158522140150963 0 -1 1
646 41 2 25.283021237554156 22.037280357221665 1.5555267802395805 0 -1 1
383 24 1 26.304236276540507 22.675417096366274 2.7180226391967914 0 0 1
652 41 2 28.098822575903807 21.83284744917717 3.6775607929087464 0 -1 1
653 41 2 28.20230103733152 22.431503056687408 2.94514387673311 0 -1 1
137 9 1 19.622658192724504 25.008956595385676 1.4378794963966166 0 -1 1
251 16 1 20.53106633586348 24.480778891102112 2.04631068643134 0 -1 1
902 57 2 19.53621971306851 24.409237465497085 2.4568273916730763 0 0 2
903 57 2 19.746197560324223 24.095156761217453 3.3306046003207794 0 0 2
252 16 1 20.57339190890185 23.543806808236344 2.1850582119549173 0 -1 1
250 16 1 20.768829040608995 25.176967824071973 1.4187047453002584 0 -1 1
553 35 2 21.114717610051468 23.556736454570366 3.088597151174552 0 -1 1
243 16 1 22.057194978033973 24.788539719138328 1.9219549935609763 0 -1 1
244 16 1 21.590759663883716 25.595344968147373 2.0444119073288642 0 -1 1
185 12 1 23.97332991478858 23.33645846917504 2.4456053237992115 0 -1 1
184 12 1 24.76330800199087 23.776895718139468 2.201507503912954 0 -1 1
127 8 1 23.84832090891018 25.10899129128196 2.63908053458028 0 -1 1
183 12 1 25.335412484096327 24.553297098387226 2.133054264033133 0 -1 1
369 24 1 26.186661051622284 23.776856263721136 1.9457239890629623 0 0 1
370 24 1 25.653241365262947 23.092646391838258 1.5658894510152612 0 0 1
371 24 1 26.587540393028817 22.862595526727095 1.6341197188875305 0 0 1
372 24 1 27.305818550875784 23.52731671525955 1.7391816701716352 0 0 1
928 58 2 29.633832285967536 25.134480948145214 0.893650849615638 -1 0 1
927 58 2 29.82913621097397 24.482370402250474 1.5980677861425145 -1 0 1
376 24 1 27.31868020038397 24.6628443571686 3.3869547605895858 0 0 1
373 24 1 27.379923363828148 24.025226215569308 2.556532109225744 0 0 1
900 57 2 18.349348426130515 24.518965018376612 2.439042094539226 0 0 2
901 57 2 19.077087261273753 25.19116553315905 2.671771348804695 0 0 2
826 52 2 20.06501783743456 25.450125002690054 2.4353069134123397 0 0 2
249 16 1 20.616051842836004 26.123980178622045 1.9268849552866056 0 -1 1
248 16 1 20.447961697525475 26.800765045087175 2.576903857381404 0 -1 1
246 16 1 20.74176368847034 25.94725351192616 3.4975602475349747 0 -1 1
552 35 2 21.68642585644759 24.2414395271032 2.77274140930714 0 -1 1
117 8 1 22.337682012047274 26.598502813984226 2.1727832823196005 0 -1 1
245 16 1 21.145667990702215 25.30248671499964 2.8699253275263716 0 -1 1
241 16 1 23.43622516114152 24.439948127768393 1.9891042835791437 0 -1 1
126 8 1 23.18268947658396 25.613773117397496 2.259906576154818 0 -1 1
125 8 1 23.88551514502396 26.17818530895781 2.233136952891823 0 -1 1
124 8 1 23.212873784224154 26.610167040981906 2.723214570666021 0 -1 1
273 18 1 24.951166038052772 25.726552376371167 2.2613085675748956 0 -1 1
178 12 1 25.742888750886955 26.165788768658217 1.7949401389142583 0 -1 1
179 12 1 26.591933899310135 25.804645643380464 1.9777932346688445 0 -1 1
180 12 1 26.64858358748286 25.43516306695237 1.1064871683193322 0 -1 1
627 40 2 27.776177913127512 25.955550187009777 1.9715165894058422 -1 -1 1
304 19 1 25.982473143422634 25.125276338804508 2.649683174503783 -1 -1 1
374 24 1 27.164068218935686 24.717706840725224 1.9479714477314787 0 0 1
146 10 1 27.305582861862874 26.293016822953252 3.1657399146366987 0 -1 1
145 10 1 28.049370310401002 26.56944990172862 3.8297785031655085 0 -1 1
824 52 2 18.42651925314964 26.375331917173586 2.124200463315818 0 0 2
822 52 2 17.574650849251398 26.5336621152347 2.859095347030787 0 0 2
821 52 2 16.643318787016774 26.87404223391469 3.147776861247937 0 0 2
720 45 2 18.960745532855437 27.594935296694846 1.8469088049423048 -1 0 2
825 52 2 19.408858673131707 26.149680789119163 2.2000619312198317 0 0 2
715 45 2 18.79968533393183 26.137007968594073 3.0826245432505748 -1 0 2
498 32 2 20.640705279427188 27.192764036826443 1.6431530371895544 -1 -1 1
718 45 2 19.044451800476555 28.03651863733556 2.8548373825041846 -1 0 2
608 38 2 21.083178581289612 28.2452335562786 0.6748755155190548 -1 -1 1
115 8 1 21.77914319244817 27.80778899909735 2.7929406663038914 0 -1 1
116 8 1 21.55849660450354 27.09495464267252 2.1484968728387828 0 -1 1
122 8 1 24.17618394276081 27.74318282759368 2.2530485909539504 0 -1 1
123 8 1 23.48512104456012 27.14863413980933 2.03381906542318 0 -1 1
275 18 1 24.452305062004662 26.733853871144987 2.7833656512321583 0 -1 1
274 18 1 24.405212455671933 25.796576727038875 3.0280328086683372 0 -1 1
662 42 2 26.0228212491367 27.79726095874487 1.7092814121953808 0 -1 1
625 40 2 27.700348779687463 27.038733558884758 2.152522062556974 -1 -1 1
663 42 2 26.366307231154657 26.918077637656015 1.4268436065925865 0 -1 1
626 40 2 28.212852240393744 26.409097537529064 2.694817852947728 -1 -1 1
3 1 1 29.421868507099216 26.77783426305277 3.147872027212907 -1 -1 1
576 36 2 16.90466269401871 29.901259075241363 2.363335000053722 0 -1 1
561 36 2 17.026814257175392 27.894782219146464 2.383987127429683 0 -1 1
562 36 2 17.519851637510843 28.51876139808199 1.7862418370969342 0 -1 1
572 36 2 18.173433891182032 29.466217946598142 1.2348298468734402 0 -1 1
717 45 2 18.47789882682352 27.886036387095448 3.561747182629919 -1 0 2
571 36 2 18.56004793395738 29.862561079374306 0.4966364817517041 0 -1 1
563 36 2 18.07038334379908 28.028690387916424 2.3720250448743867 0 -1 1
600 38 2 20.27411373836434 29.648571585021326 1.2653615929108175 -1 -1 1
606 38 2 21.407281524277497 28.004662116977396 1.7422944813929508 -1 -1 1
602 38 2 20.979818845101335 29.616181647357045 2.9759372847522587 -1 -1 1
607 38 2 21.56842830697447 28.879023809941003 1.2527709220439336 -1 -1 1
68 5 1 22.603538267370094 27.386041945630037 1.428650465314197 -1 -1 1
70 5 1 23.079396040810014 28.84612852249944 2.5836397544247944 -1 -1 1
157 10 1 25.30233193890265 28.185196199757 2.6032985306770984 0 -1 1
661 42 2 25.611565548262394 27.100863338858517 2.180735686402622 0 -1 1
197 13 1 27.59236369748742 28.168305254642668 1.2384139683802435 -1 -1 1
9 1 1 26.649966195297488 27.685298478825686 2.6139648869579237 -1 -1 1
8 1 1 26.43509374970754 28.578937399304326 2.6675184373595404 -1 -1 1
194 13 1 29.180881131256044 28.955442529384477 1.0616904705599084 -1 -1 1
7 1 1 27.412399859397883 28.738759145381 2.760776109780546 -1 -1 1
573 36 2 18.236072142919557 29.66655369291688 2.170925832420383 0 -1 1
574 36 2 18.577272164358433 30.522650042587056 2.473637526139007 0 -1 1
575 36 2 17.57344950107385 30.586964238304713 2.633428784457874 0 -1 1
570 36 2 19.032617992899237 30.10491030576027 1.3014958761711257 0 -1 1
569 36 2 19.73586719448344 30.727192103518263 1.4597273664312307 0 -1 1
601 38 2 20.556672648488004 29.4831599663726 2.135228968907905 -1 -1 1
604 38 2 21.774867738649753 28.788718682900107 3.1914623253737524 -1 -1 1
524 33 2 21.291674031048828 30.567524352646256 2.036541297056605 -1 -1 1
867 55 2 22.988729267008843 28.886654791044425 0.874613355297214 -1 0 1
69 5 1 22.791067139127346 28.236495296010734 1.7838949232185015 -1 -1 1
71 5 1 22.71497979764076 29.684818518429847 2.8240558810212817 -1 -1 1
321 21 1 25.038335716942736 29.799866480337027 1.9159027799744697 -1 -1 0
156 10 1 25.557198362079784 28.869265514169076 3.140879767658303 0 -1 1
495 31 2 25.99060808910019 29.69810738534712 2.4760126408967933 -1 -1 1
328 21 1 26.692909092634324 29.280243608890487 0.8112345429475377 -1 -1 0
329 21 1 26.84749412799739 28.872257358086426 1.6564407264301737 -1 -1 0
496 31 2 26.951107155350655 29.87721190029816 2.717387951156083 -1 -1 1
331 21 1 27.979481222953435 29.783596060389442 2.4952215838287732 -1 -1 0
330 21 1 27.574246169969136 29.56507107201092 1.6741337285909517 -1 -1 0
879 55 2 18.494111131587914 31.319302677129727 1.6985490432501815 -1 0 1
880 55 2 17.89051169292881 30.740351389356533 1.261582190658333 -1 0 1
878 55 2 19.406128565613525 31.413180982532072 2.048435023975652 -1 0 1
877 55 2 19.955495646544342 0.10079670373082752 1.6592695891022207 -1 1 1
766 48 2 20.289241166765457 30.758416495192197 2.3760350718438 0 0 2
478 30 1 20.139929256756844 0.7876939841183146 3.680626394319243 -1 1 1
523 33 2 21.860038662095114 29.791685491449737 2.277579995818432 -1 -1 1
754 48 2 21.944711878452942 31.5692196740127 1.6369099204510025 0 0 2
756 48 2 22.135427210501735 30.78604790887292 3.0427678753175487 0 0 2
521 33 2 22.421126004742316 30.7482300082071 0.9758054155601945 -1 -1 1
522 33 2 22.401988632025617 30.438653945023855 1.900719964180651 -1 -1 1
517 33 2 23.56885231702627 29.965345020831567 1.851226364064724 -1 -1 1
516 33 2 24.189504416293634 29.54055797434659 2.473527869958645 -1 -1 1
577 37 2 22.57525185514231 0.19750333692752559 3.42185293806164 -1 0 1
515 33 2 24.341937213333892 30.497860203448365 2.5750577490370983 -1 -1 1
514 33 2 24.034274199296743 31.205807185299268 3.1719550396401 -1 -1 1
272 17 1 26.511826852625017 0.397282625152882 0.6629771411753472 0 0 1
332 21 1 28.22470359893171 30.760240138783328 2.613489262422425 -1 -1 0
480 30 1 19.28800405172038 0.0947093692160056 3.9780388986294666 -1 1 1
476 30 1 20.7702125803794 31.567293058725546 3.4124723408288413 -1 0 1
768 48 2 20.632284342643278 0.4193395891776808 2.6129389376827965 0 1 2
475 30 1 21.37531962100971 0.2935844398419868 3.3311696942103 -1 1 1
474 30 1 21.732081030785803 31.51177483688947 3.743755450547745 -1 0 1
487 31 2 22.090809761435604 0.37389717931341426 4.280663439696354 -1 0 1
579 37 2 23.592374022285462 1.032589609416927 3.820761776624573 -1 0 1
578 37 2 23.5139227635062 0.28905718230316396 3.2421671301690895 -1 0 1
683 43 2 23.931166031513015 0.34277295645982064 5.284516862141247 -1 0 1
686 43 2 24.736678853388387 1.3774449103221258 4.108822913809673 -1 0 1
685 43 2 24.53977230391772 0.540700180710658 3.6747157110054407 -1 0 1
406 26 1 25.871407993116577 0.15027158021512801 3.767976473406729 -1 0 1
405 26 1 25.09377824170465 31.622679682778507 3.8245016682599893 -1 -1 1
407 26 1 26.021362180958462 1.0787826754169585 3.49722074870503 -1 0 1
486 31 2 22.052907762912763 1.190978803923523 3.755679381471928 -1 0 1
485 31 2 22.680371588230837 1.3482135826892139 4.4886734277252245 -1 0 1
688 43 2 23.299156939973706 2.1525398130285507 3.9868103580527126 -1 0 1
687 43 2 24.2453578904226 2.171192910565658 3.748363200951455 -1 0 1
408 26 1 25.270139624270904 0.9737592808513641 2.940493610164001 -1 0 1
191 12 1 21.634519054182014 22.373550210138465 2.4229947655464197 0 -1 1
190 12 1 22.479949151351622 22.697869609442918 2.465942693962418 0 -1 1
189 12 1 23.33564525769313 22.565515868003192 2.961202374626739 0 -1 1
649 41 2 26.318214258107616 21.344230244569445 3.2025395103876466 0 -1 1
648 41 2 25.36700895275287 21.639556633854912 2.8796133644836317 0 -1 1
81 6 1 23.131078701032536 21.52284600411204 4.900568475227616 0 -1 1
650 41 2 26.63681884401922 21.681912961967953 4.067429975599997 0 -1 1
656 41 2 28.256249336019888 24.48779674837778 2.980236664285668 0 -1 1
655 41 2 28.39006761459495 23.879344100736564 2.271537370852717 0 -1 1
555 35 2 22.063071095425187 22.605323460165618 4.423736929502058 0 -1 1
554 35 2 21.55719953401559 23.375751265900984 3.9120809851801233 0 -1 1
556 35 2 22.781272936049977 22.92114982835915 3.757808363424008 0 -1 1
192 12 1 21.341945830966253 22.435554469901923 1.51507779308647 0 -1 1
187 12 1 24.435200500175316 22.645863559879857 3.18275959044803 0 -1 1
188 12 1 23.787456540119468 22.446347735999517 3.8020448792119157 0 -1 1
384 24 1 25.502483830097162 22.54816996307464 3.1623009746472452 0 0 1
299 19 1 23.89794429202243 24.28043205600325 3.177062636661748 -1 -1 1
82 6 1 22.572450330923132 22.137133568279474 5.397192123540474 0 -1 1
94 6 1 25.70488640122614 21.896903825435796 4.151791362004046 0 -1 1
654 41 2 28.052609354117912 22.962950596306413 2.16071003712995 0 -1 1
382 24 1 27.054350217022137 22.411515499054527 3.1661378815466588 0 0 1
380 24 1 26.52818400367833 23.282338826195975 3.653540499845911 0 0 1
379 24 1 26.27376854512138 24.163619382987697 4.007145881943522 0 0 1
904 57 2 20.533786451303097 24.49046443999097 3.0733678392228954 0 0 2
905 57 2 20.840848347252688 24.192352428854303 3.9376625204406004 0 0 2
909 57 2 19.333422820036255 25.824641871183612 5.0680747818905365 0 0 2
906 57 2 20.563534447916755 24.552689248599297 4.765452313818525 0 0 2
551 35 2 21.86970519495224 24.80144447948877 3.5080956359068463 0 -1 1
550 35 2 21.59484470362541 25.039810919322143 4.385282810936888 0 -1 1
557 35 2 22.25506428242212 23.50249796898997 3.1996814535368414 0 -1 1
558 35 2 23.045644448108153 23.85627265288389 2.7393554292011966 0 -1 1
559 35 2 22.74564431909438 24.727313872147214 2.863037302743486 0 -1 1
298 19 1 23.259914965046338 23.960268902382847 3.7531535101723765 -1 -1 1
297 19 1 23.50906286996765 23.550162999881767 4.5779895229328265 -1 -1 1
302 19 1 25.258852963568092 23.7677667556927 3.2297866783229767 -1 -1 1
301 19 1 25.29550235579876 24.461262480767264 3.945402624098666 -1 -1 1
93 6 1 26.40121366210186 22.5949512316751 4.379057945737872 0 -1 1
49 4 1 24.14996823405377 25.02031558647774 3.822427666539947 0 -1 1
300 19 1 24.788659513118173 24.662674887328663 3.1054426906635704 -1 -1 1
381 24 1 27.414603339230812 23.309666821370303 3.2263487692102957 0 0 1
303 19 1 26.05580404290607 24.21452348689275 2.9912219375074414 -1 -1 1
222 14 1 25.533843476865727 24.06377087809856 4.8198537928671525 -1 -1 0
378 24 1 26.754887822214076 23.818062017799484 4.672414093126003 0 0 1
377 24 1 27.505898097537017 23.98311327137083 4.0915658829267585 0 0 1
829 52 2 18.449278136144432 25.506423644418536 3.9071214224249937 0 0 2
830 52 2 18.080199292381305 26.391376780701528 3.775149614283839 0 0 2
827 52 2 19.899943801606714 25.279537232509867 3.3730250558756554 0 0 2
828 52 2 19.262394466880654 24.98947189668639 4.061022296412898 0 0 2
713 45 2 19.42186280937208 26.169154060245063 4.06186896403832 -1 0 2
247 16 1 21.31361716036796 26.485086387424147 2.913196643623086 0 -1 1
712 45 2 20.1959672171031 26.723897891667907 4.235536254034462 -1 0 2
97 7 1 21.476245022986493 26.24912449978162 4.398068096011412 -1 -1 1
560 35 2 22.356650929272213 25.599669790835794 2.895631953137036 0 -1 1
128 8 1 23.36581990898287 25.506399099495923 3.3027351868071544 0 -1 1
52 4 1 24.46127366988978 26.096618587380114 4.340150752698629 0 -1 1
53 4 1 23.73076329073204 26.355305252862262 3.730706345144907 0 -1 1
13 1 1 26.018058838573335 25.148704539043557 4.015273236171989 -1 -1 1
14 1 1 25.39681180669227 25.574617927632612 3.4156903197274486 -1 -1 1
12 1 1 26.50456639386747 25.651159857567542 3.357911256433458 -1 -1 1
375 24 1 27.40621025700825 25.362424146653666 2.700887253147384 0 0 1
212 14 1 27.52122289223286 25.628177173845124 3.877529008234232 -1 -1 0
823 52 2 17.624312692094644 26.85672737841003 2.004533822985123 0 0 2
820 52 2 17.251688630510394 27.597952497085362 3.4567652946744096 0 0 2
714 45 2 19.764651002737313 26.24361206835 3.218780011868063 -1 0 2
819 52 2 17.01221692943853 28.158480539038187 4.169274256633015 0 0 2
33 3 1 20.171420018002394 28.053619824296543 2.194273634182386 0 -1 1
114 8 1 20.931898624583734 27.768911892616824 3.2414130753176478 0 -1 1
98 7 1 21.262791453032996 27.028303891620634 4.924607533472759 -1 -1 1