ITEM: TIMESTEP
0
ITEM: NUMBER OF ATOMS
960
ITEM: BOX BOUNDS pp pp pp
0.0000000000000000e+00 3.2000000000000000e+01
0.0000000000000000e+00 3.2000000000000000e+01
0.0000000000000000e+00 3.2000000000000000e+01
ITEM: ATOMS id type xu yu zu
1 1 -4.01352 10.5798 9.80544
2 1 -3.18273 9.91867 9.77838
3 1 -2.28809 9.4826 9.90771
4 1 -1.85077 10.0244 10.554
5 1 -2.2985 10.2516 11.3738
6 1 -2.99952 10.8561 11.2808
7 1 -2.29713 11.5112 11.3628
8 1 -1.73199 11.0511 10.7293
9 1 -1.97927 10.9362 9.80473
10 1 -1.00665 10.9222 10.0459
11 1 -1.28573 10.7399 9.17141
12 1 -1.64164 9.88634 9.25167
13 1 -1.27302 9.0969 8.92756
14 1 -1.35274 8.26002 8.38871
15 1 -1.46714 8.09005 9.32343
16 1 -0.513564 7.9414 9.36069
17 1 22.0577 -2.77318 15.4572
18 1 21.6806 -3.6207 15.212
19 1 21.3352 -3.88106 14.3213
20 1 21.9397 -3.35139 13.9536
21 1 21.6582 -3.58113 13.0738
22 1 21.6008 -4.14129 12.3267
23 1 21.0874 -3.39566 11.9521
24 1 20.8073 -2.81717 12.7035
25 1 20.6321 -3.67181 13.0057
26 1 20.7018 -3.0509 13.8026
27 1 20.0348 -2.63306 14.3395
28 1 19.1433 -3.0261 14.2852
29 1 19.4401 -2.78036 13.3902
30 1 19.488 -1.85754 13.823
31 1 19.7421 -0.95431 13.7728
32 1 19.7927 -0.146048 13.3875
33 1 17.8672 -0.242579 10.6214
34 1 18.8078 -0.525638 10.378
35 1 19.526 -1.14635 10.3209
36 1 19.2338 -0.841882 9.45878
37 1 19.6282 -0.831982 8.59231
38 1 20.2035 -1.41554 9.20183
39 1 19.5751 -2.07324 9.56079
40 1 19.3813 -2.21126 10.5397
41 1 19.3001 -3.1465 10.3149
42 1 19.174 -3.19139 11.2363
43 1 19.981 -2.80298 11.6048
44 1 19.7036 -3.35886 12.3062
45 1 19.1086 -3.9778 11.8379
46 1 18.3662 -3.40451 11.8666
47 1 18.1477 -4.04891 11.2968
48 1 18.1397 -4.44395 10.3851
49 1 22.5777 4.20178 11.9098
50 1 21.9954 4.08129 11.21
51 1 22.6113 3.35526 11.2038
52 1 23.2633 2.79555 11.5355
53 1 23.0399 2.2019 12.2472
54 1 23.9018 1.84767 12.6081
55 1 23.6345 1.30085 13.3187
56 1 24.0437 1.71035 14.0388
57 1 23.3258 2.07953 14.5769
58 1 22.7767 2.75214 14.1413
59 1 23.1903 2.84766 13.2488
60 1 22.3315 2.72706 12.7743
61 1 21.4152 2.55308 12.4975
62 1 21.7089 3.2351 11.88
63 1 20.7996 3.42987 11.941
64 1 20.2078 4.04483 12.316
65 1 10.1815 -3.82979 33.3417
66 1 10.7237 -4.05815 34.1036
67 1 9.82138 -3.92704 34.4783
68 1 9.13687 -4.1395 33.72
69 1 8.70813 -4.67806 34.3147
70 1 8.02993 -5.2651 33.866
71 1 8.03581 -5.78314 33.0247
72 1 8.37171 -6.53616 32.5987
73 1 9.08795 -6.79788 31.8854
74 1 9.29064 -5.92946 32.218
75 1 9.04031 -5.53412 33.0809
76 1 9.56499 -4.85049 32.5687
77 1 10.1719 -4.63782 31.7989
78 1 10.6969 -4.34165 32.5939
79 1 11.5777 -4.38704 32.3176
80 1 11.4386 -5.26787 31.9949
81 1 32.3701 7.15382 12.2409
82 1 32.1203 6.52205 11.5757
83 1 32.5084 5.86399 10.9957
84 1 32.1228 6.34833 10.2437
85 1 31.9841 7.3106 10.4342
86 1 32.8936 6.96283 10.3864
87 1 33.1505 7.44227 11.1918
88 1 33.0978 6.61594 11.6399
89 1 33.852 6.60031 10.963
90 1 34.21 7.55698 10.8406
91 1 34.6785 8.35311 10.5807
92 1 34.2904 8.56371 9.69211
93 1 34.9695 9.09099 9.35403
94 1 34.4036 9.89064 9.1087
95 1 33.9076 9.44077 9.85898
96 1 34.7043 9.849 10.2282
97 1 -3.70232 12.7115 9.5574
98 1 -3.31362 13.5844 9.45433
99 1 -2.55259 13.2558 9.03625
100 1 -3.05599 13.7764 8.38596
101 1 -3.82042 13.58 7.8186
102 1 -3.51721 12.6528 7.98349
103 1 -2.63615 12.4116 8.2679
104 1 -2.24108 12.9771 7.59795
105 1 -1.75987 12.7572 6.77923
106 1 -1.34107 11.9027 7.02036
107 1 -0.572437 12.3398 7.36325
108 1 0.215683 12.027 6.88618
109 1 -0.603837 11.9125 6.25616
110 1 -1.01765 11.1394 5.8916
111 1 -0.88403 10.3438 6.50257
112 1 -0.974405 9.38987 6.63113
113 1 20.4802 -1.94904 10.7449
114 1 20.3838 -2.71577 10.1674
115 1 21.0215 -3.37976 9.70827
116 1 21.4934 -2.619 10.1043
117 1 21.1385 -1.69582 10.0523
118 1 21.4806 -1.88724 10.9146
119 1 21.0755 -2.75945 11.1989
120 1 21.962 -2.56704 11.4938
121 1 22.6821 -2.8831 12.0195
122 1 22.3839 -3.62692 11.4828
123 1 21.9163 -3.48568 10.6249
124 1 22.2009 -3.523 9.73047
125 1 22.2455 -2.71607 9.23827
126 1 23.2227 -2.75088 9.49195
127 1 22.8592 -2.93595 10.4103
128 1 23.4822 -2.56113 10.9875
129 1 21.4719 -1.95096 14.6866
130 1 21.7915 -2.16731 13.8289
131 1 21.7721 -1.71525 12.9637
132 1 22.0339 -2.47652 12.5615
133 1 22.7655 -1.92767 12.3918
134 1 22.7676 -1.88819 11.4109
135 1 21.9808 -1.54787 11.7987
136 1 21.2198 -2.12915 12.0202
137 1 20.5055 -1.47664 11.8199
138 1 20.019 -0.783179 11.33
139 1 19.8917 -0.0639343 10.6197
140 1 20.1357 -0.332478 9.75709
141 1 20.9771 0.144139 9.77204
142 1 20.7398 0.57212 10.5792
143 1 20.0666 0.786247 9.96529
144 1 19.1952 0.420435 9.778
145 1 33.9901 13.9161 11.3011
146 1 34.0832 14.6501 10.6872
147 1 34.7388 14.1475 10.1733
148 1 34.1835 14.7437 9.66745
149 1 33.99 13.8209 9.43735
150 1 33.2664 13.61 10.0968
151 1 32.7943 13.2387 10.8533
152 1 33.188 12.4369 10.5143
153 1 32.8234 12.1106 11.3321
154 1 32.1159 12.6354 11.8142
155 1 31.4098 12.0503 12.0901
156 1 30.8019 12.6499 12.5238
157 1 31.2974 13.4594 12.2318
158 1 32.2058 13.7526 12.03
159 1 33.1054 13.7276 12.4122
160 1 32.8781 14.2825 13.1955
161 1 30.817 15.6685 11.6891
162 1 31.4986 15.6682 12.3936
163 1 31.4228 14.8214 11.9614
164 1 31.7995 14.3871 12.7031
165 1 31.8419 13.7076 13.3768
166 1 31.1725 13.6425 14.0323
167 1 30.8274 12.6767 14.1343
168 1 31.1138 11.812 14.2582
169 1 31.8889 11.2421 14.586
170 1 31.8803 11.0923 13.6977
171 1 31.2394 10.4174 13.8996
172 1 30.4046 10.7379 13.5654
173 1 31.0113 10.9902 12.8953
174 1 30.5334 11.7324 13.3752
175 1 31.4254 12.092 13.2576
176 1 32.3232 12.1209 12.9629
177 1 36.5186 11.8331 9.62344
178 1 36.5902 12.5995 10.1652
179 1 35.768 12.6742 10.6562
180 1 35.5414 12.5462 11.6135
181 1 34.7984 12.2169 11.0619
182 1 35.4254 11.5252 10.9589
183 1 35.0605 10.6452 11.0931
184 1 34.4339 11.2182 10.596
185 1 33.8137 11.7683 11.0626
186 1 33.8609 12.6006 11.6063
187 1 33.3938 12.5151 12.4745
188 1 34.3273 12.5027 12.6318
189 1 34.1284 13.3988 12.2476
190 1 35.0714 13.3514 12.311
191 1 35.4581 14.2796 12.4742
192 1 35.964 13.7637 11.8749
193 1 0.361884 7.72913 14.078
194 1 -0.0702317 8.53639 13.6927
195 1 -0.27799 8.15037 12.8675
196 1 -0.987893 8.80448 12.6328
197 1 -0.441595 9.62045 12.8781
198 1 -1.18352 9.64737 13.5284
199 1 -1.95146 9.33122 13.0683
200 1 -2.46849 10.013 12.6919
201 1 -2.05466 10.7587 12.3693
202 1 -2.55914 11.451 12.7017
203 1 -2.33881 12.3884 13.0969
204 1 -2.22031 13.1179 12.4881
205 1 -1.68138 13.7362 11.9742
206 1 -2.35993 13.4958 11.3717
207 1 -2.89376 12.7354 11.4251
208 1 -3.31591 11.9531 11.7413
209 1 1.34406 11.2836 -23.7018
210 1 0.527859 11.4345 -24.1895
211 1 1.25492 11.8661 -24.7473
212 1 1.35871 12.3439 -23.9052
213 1 0.6783 12.6948 -24.4068
214 1 0.980515 13.2664 -23.6354
215 1 0.0499431 13.4662 -23.6738
216 1 -0.0831583 12.5768 -23.3631
217 1 -0.0956632 11.8867 -22.714
218 1 0.598834 11.2327 -22.8846
219 1 0.858853 12.212 -23.0202
220 1 1.77041 12.5549 -22.7132
221 1 2.13205 12.0492 -21.9297
222 1 2.21084 12.8704 -21.5005
223 1 2.84008 13.3718 -20.9928
224 1 2.95219 14.3252 -20.7147
225 1 16.3015 41.0483 34.3909
226 1 16.5339 41.571 33.582
227 1 15.7487 42.0859 33.595
228 1 15.7084 41.4766 32.8414
229 1 14.7662 41.4819 32.8032
230 1 15.0195 41.2846 33.7282
231 1 14.1026 41.117 33.6849
232 1 14.2516 41.3656 34.5829
233 1 14.4577 40.392 34.4149
234 1 13.5453 40.477 34.5647
235 1 12.9293 40.7229 35.2599
236 1 12.7262 41.5826 35.4753
237 1 13.0101 42.2997 36.0171
238 1 12.2484 42.7234 36.4437
239 1 11.6544 42.4839 37.2346
240 1 12.1274 43.3251 37.4077
241 1 35.3257 8.58749 11.4834
242 1 35.2221 9.34346 10.8887
243 1 35.7726 9.93754 10.4466
244 1 36.3719 9.75157 11.2155
245 1 35.807 9.55922 12.0346
246 1 35.2038 9.45288 12.7403
247 1 34.4646 9.30842 13.3622
248 1 33.6294 9.86661 13.4248
249 1 33.4486 9.37784 12.6468
250 1 32.5789 9.09265 12.708
251 1 32.4782 9.17827 11.8025
252 1 33.3818 9.4042 11.4417
253 1 34.1748 9.20545 11.8988
254 1 34.8186 9.94584 11.8137
255 1 34.5087 10.5757 12.4328
256 1 34.5791 11.4186 11.987
257 1 30.7784 9.31651 11.5737
258 1 30.0749 8.86339 11.9601
259 1 30.1281 8.15358 12.6104
260 1 30.7624 7.91148 11.9787
261 1 30.4694 8.31951 11.0923
262 1 30.5689 8.95256 10.4406
263 1 31.2238 8.88166 9.69918
264 1 31.7442 9.50932 9.24561
265 1 32.1997 10.3122 9.50479
266 1 31.5876 9.87749 10.1673
267 1 32.0521 9.54801 10.9681
268 1 32.7544 10.2584 10.8346
269 1 33.7398 10.4784 10.5704
270 1 33.1013 10.4959 9.80299
271 1 33.5917 10.4158 8.9402
272 1 34.2183 10.6649 8.14906
273 1 35.2399 15.1137 10.4888
274 1 35.0334 15.9984 9.98342
275 1 34.2756 15.5477 10.2577
276 1 33.6643 16.2679 10.2838
277 1 33.9866 16.3587 11.1771
278 1 34.9613 16.2061 11.0802
279 1 34.4656 15.4141 11.4089
280 1 34.3937 14.6654 12.0264
281 1 33.7824 14.5883 12.78
282 1 32.9659 15.196 12.3879
283 1 32.4989 15.8004 11.8708
284 1 32.6359 16.0606 11.0006
285 1 32.5 16.953 10.5496
286 1 31.7848 16.328 10.4826
287 1 31.6829 15.6 11.1124
288 1 31.5234 16.4446 11.5861
289 1 1.18014 15.277 7.50049
290 1 1.78022 14.6309 7.19479
291 1 1.12198 14.0244 7.72413
292 1 0.53103 14.448 8.39779
293 1 0.642413 14.9945 9.153
294 1 1.12504 14.6342 9.83882
295 1 0.26424 14.1481 9.76818
296 1 0.234332 13.3478 9.26587
297 1 0.262831 12.6977 9.93257
298 1 -0.27725 13.3527 10.3309
299 1 -0.164049 12.5592 10.8717
300 1 -0.591961 11.9123 10.3095
301 1 0.34228 11.6355 10.287
302 1 1.26592 11.418 10.2011
303 1 1.57229 11.397 9.32525
304 1 2.27923 10.804 9.66
305 1 3.45903 10.6311 -22.8091
306 1 3.74025 11.2494 -22.0198
307 1 3.19556 12.0303 -21.9377
308 1 2.79326 11.7013 -22.7549
309 1 3.61791 12.0711 -22.9302
310 1 3.64171 12.8579 -22.4289
311 1 2.91109 13.3107 -22.9064
312 1 2.16868 13.3212 -23.4918
313 1 2.31203 14.1019 -24.0013
314 1 2.77809 14.5567 -23.3186
315 1 1.76843 14.5103 -23.2522
316 1 1.88257 15.4305 -23.3606
317 1 1.35963 15.8953 -22.7337
318 1 0.612273 16.3753 -22.3404
319 1 -0.126407 16.0854 -22.8157
320 1 -0.348588 17.0486 -22.8024
321 1 1.36268 15.342 -21.0963
322 1 1.30459 14.5968 -20.4573
323 1 0.359178 14.7729 -20.451
324 1 0.68559 14.1823 -21.2396
325 1 -0.242163 14.4101 -21.4369
326 1 -0.667231 13.941 -20.6802
327 1 -1.30916 14.6986 -20.7624
328 1 -1.43523 13.9172 -21.3549
329 1 -2.25084 14.0058 -21.8835
330 1 -1.92775 13.9996 -22.7016
331 1 -1.49604 14.7444 -22.3095
332 1 -0.84987 14.057 -22.2554
333 1 -0.355858 14.4126 -23.0403
334 1 -0.583686 14.3601 -24.0217
335 1 -0.484434 13.5672 -24.6202
336 1 -0.065213 13.0945 -25.3101
337 1 13.8482 45.709 37.4984
338 1 13.2638 44.9108 37.4735
339 1 13.0523 44.9486 38.3769
340 1 13.2987 44.0196 38.3088
341 1 13.291 43.2006 37.7907
342 1 13.4764 43.0427 36.8709
343 1 12.9418 42.2108 37.0176
344 1 12.6596 41.8959 37.8751
345 1 13.4389 42.1433 38.482
346 1 14.0298 42.2651 37.6468
347 1 14.3528 41.5837 38.2907
348 1 15.2829 41.7311 38.5601
349 1 15.6249 41.6629 37.6612
350 1 16.528 41.8796 37.9997
351 1 16.4203 40.9589 38.1099
352 1 15.9477 41.0798 38.93
353 1 18.2846 44.9969 32.1309
354 1 17.5576 45.4036 32.6037
355 1 17.8489 45.8274 33.3794
356 1 17.0483 45.5149 33.7533
357 1 16.9542 44.7357 34.3352
358 1 15.996 44.3977 34.4
359 1 15.4881 43.728 33.7869
360 1 15.9571 42.9532 34.198
361 1 15.395 43.1664 34.9203
362 1 15.8708 43.2846 35.7536
363 1 16.3247 42.5655 35.3478
364 1 16.4736 42.0845 34.5283
365 1 17.3467 41.5279 34.7516
366 1 17.9768 40.9344 34.3875
367 1 17.2981 40.8324 33.6546
368 1 17.1378 40.3456 34.4314
369 1 23.1838 31.9873 12.7139
370 1 22.3894 32.2671 12.2712
371 1 22.1551 31.4812 11.6858
372 1 22.1646 31.004 10.8838
373 1 22.5359 30.2302 10.4733
374 1 23.0949 30.6598 9.77592
375 1 22.6272 31.484 9.82884
376 1 23.5206 31.585 9.55315
377 1 23.2693 32.0104 10.4053
378 1 23.4646 32.7086 11.0571
379 1 23.5151 32.6587 12.0169
380 1 24.0841 31.9261 12.1083
381 1 23.2455 31.7296 11.6099
382 1 23.7899 31.3941 10.9191
383 1 23.9433 30.5383 11.3221
384 1 23.5455 30.883 12.1308
385 1 -1.65431 13.9445 6.31181
386 1 -1.1631 14.5677 6.87964
387 1 -1.65327 13.8694 7.33397
388 1 -2.60498 13.9583 7.3556
389 1 -2.24902 14.8507 7.26812
390 1 -1.5504 14.8912 7.92047
391 1 -1.84291 15.8279 7.78289
392 1 -1.10673 15.7318 8.39864
393 1 -0.501821 15.3772 7.87134
394 1 -0.177619 15.2089 6.95459
395 1 0.539441 14.6191 7.0266
396 1 1.11623 14.6076 6.24841
397 1 0.808352 13.6863 6.11706
398 1 1.27952 13.0844 6.69826
399 1 1.68177 13.088 7.55256
400 1 2.35482 12.9426 6.78699
401 1 3.3084 11.1443 8.30806
402 1 3.58984 11.9177 7.77838
403 1 2.68712 11.9309 8.13078
404 1 2.42257 11.4481 7.31429
405 1 1.65494 10.8248 7.31331
406 1 1.61664 9.93298 7.04311
407 1 1.4793 9.84409 7.97608
408 1 0.763042 9.37798 8.39329
409 1 0.667969 10.2935 8.42934
410 1 0.628856 10.2716 7.50254
411 1 0.570275 10.8478 6.71013
412 1 0.191779 9.96185 6.56675
413 1 0.0698326 9.17827 7.26389
414 1 1.0286 9.01868 7.21146
415 1 1.72141 8.75667 6.60163
416 1 0.979455 8.37469 6.17355
417 1 20.1212 34.7928 12.6434
418 1 19.283 34.3764 12.3493
419 1 19.526 33.5001 12.6175
420 1 19.9429 32.7643 12.2149
421 1 20.3129 32.6825 13.141
422 1 21.1866 32.8907 12.8548
423 1 22.0437 32.8528 13.1714
424 1 21.8601 33.5806 12.6362
425 1 22.8351 33.3492 12.6241
426 1 22.927 33.4284 11.629
427 1 23.5024 33.8126 10.9637
428 1 23.6417 34.6616 10.5275
429 1 22.7625 34.8502 10.3065
430 1 22.5404 34.1512 10.9523
431 1 22.374 33.2235 10.7715
432 1 22.4376 32.1845 11.025
433 1 14.867 42.5364 33.8872
434 1 13.9813 42.1903 33.8597
435 1 13.0042 42.0331 33.9584
436 1 13.4301 42.3299 34.7405
437 1 12.491 42.3742 35.0116
438 1 12.7595 43.2478 34.6704
439 1 12.0553 43.7419 34.1492
440 1 12.0174 44.0213 35.0329
441 1 11.8131 44.8529 35.4655
442 1 12.164 44.1745 36.1088
443 1 13.0705 43.9317 36.5275
444 1 12.7735 44.8296 36.4569
445 1 13.7441 44.8898 36.326
446 1 14.4259 44.2132 36.0816
447 1 14.7363 43.4714 35.6063
448 1 13.7933 43.236 35.4777
449 1 12.4712 47.2287 36.1359
450 1 12.5342 46.2425 35.914
451 1 13.1242 45.5854 35.6693
452 1 13.2603 44.6478 35.3718
453 1 12.9349 44.4266 34.4582
454 1 13.557 44.1753 33.8073
455 1 13.9829 43.9692 34.6814
456 1 13.6788 43.2379 34.1066
457 1 14.4791 43.6699 33.7538
458 1 14.3478 44.4642 33.136
459 1 14.6932 44.7631 34.023
460 1 14.4923 45.7225 34.128
461 1 13.6745 45.4477 34.4865
462 1 14.3463 45.1585 35.0919
463 1 14.8685 45.6573 35.7965
464 1 14.9838 45.6507 36.7723
465 1 9.69458 26.6244 38.4401
466 1 9.53355 25.7463 38.2429
467 1 9.67067 24.9115 37.7629
468 1 9.21796 24.7267 36.9795
469 1 9.67468 24.497 36.1706
470 1 9.74278 24.6165 35.2671
471 1 10.4945 24.8784 34.7002
472 1 10.257 25.7817 34.4795
473 1 9.70432 26.3886 33.9044
474 1 10.2458 27.0486 33.4356
475 1 10.0817 26.3693 32.8392
476 1 10.9489 25.9753 32.5504
477 1 11.1005 25.2488 31.9685
478 1 10.1551 25.4158 32.3035
479 1 10.1656 26.1012 31.5514
480 1 9.444 25.9927 30.9017
481 2 5.89269 -5.88406 31.8046
482 2 5.53159 -4.96087 31.8241
483 2 5.16899 -5.54891 32.4953
484 2 5.52909 -6.42496 32.6894
485 2 4.9657 -6.224 33.3972
486 2 5.113 -6.48579 34.2756
487 2 5.419 -5.65222 34.5264
488 2 6.22926 -6.11057 34.2445
489 2 6.13005 -7.05004 34.0169
490 2 6.58056 -7.88344 33.8698
491 2 6.38074 -7.32927 33.0525
492 2 6.63297 -6.45399 33.273
493 2 6.89545 -5.94231 32.5492
494 2 6.57497 -5.03225 32.42
495 2 7.47567 -4.97105 32.7693
496 2 8.32151 -4.55903 33.1193
497 2 8.44687 -6.53924 36.4334
498 2 9.37581 -6.25513 36.4479
499 2 9.55371 -5.73013 37.3015
500 2 8.59754 -5.79451 37.2138
501 2 8.50928 -5.49027 36.2595
502 2 8.00496 -5.78363 35.5247
503 2 7.18931 -5.16049 35.6368
504 2 7.0953 -5.57199 34.7722
505 2 7.74108 -4.8509 34.7052
506 2 7.83322 -4.21527 34.0072
507 2 8.28397 -3.76652 34.6921
508 2 7.61523 -3.13043 34.3096
509 2 7.41456 -3.66239 35.1278
510 2 6.65937 -4.19181 35.5622
511 2 6.41519 -4.74284 34.8107
512 2 6.46045 -3.79279 34.5269
513 2 17.3646 11.4272 37.9811
514 2 16.7057 12.0932 37.8585
515 2 17.0144 12.4859 37.0845
516 2 17.3488 12.794 36.2477
517 2 18.2749 12.6746 36.7112
518 2 17.9231 12.982 37.5814
519 2 17.4822 13.6277 36.9461
520 2 16.8848 13.5044 37.7586
521 2 16.5897 14.2454 37.2218
522 2 16.3172 13.3956 36.7989
523 2 15.9004 12.6899 37.24
524 2 15.3064 12.6317 36.5129
525 2 14.9917 12.1706 37.208
526 2 13.9929 12.1851 37.1796
527 2 14.212 12.4532 38.1069
528 2 14.0255 12.4609 39.0418
529 2 16.0351 8.1589 35.1817
530 2 15.3709 8.72249 34.8961
531 2 14.5637 8.80106 35.4558
532 2 14.8651 7.86651 35.4245
533 2 15.4281 7.94665 36.2038
534 2 15.025 8.85687 36.4608
535 2 14.2126 8.92992 36.9418
536 2 15.0196 8.94958 37.4202
537 2 15.9153 8.79792 37.0101
538 2 16.1463 8.95425 36.1082
539 2 15.9852 9.92853 36.2716
540 2 15.3241 9.52985 35.7368
541 2 15.3185 9.85501 34.8293
542 2 14.5053 10.2555 35.1703
543 2 13.9148 9.71204 35.6717
544 2 13.3717 9.37915 36.2925
545 2 34.2049 6.82561 12.807
546 2 33.6361 7.4778 12.4224
547 2 33.8474 8.15659 11.7554
548 2 32.9759 8.22803 12.011
549 2 32.7171 8.33765 11.0786
550 2 33.1666 8.17203 10.2092
551 2 33.7367 8.78937 10.6518
552 2 32.9773 9.33174 10.3854
553 2 32.9426 9.34167 9.47315
554 2 33.3574 8.50115 9.15413
555 2 32.4344 8.59185 9.14803
556 2 32.1262 8.67129 10.0127
557 2 31.4863 8.45571 10.7347
558 2 31.6747 8.45633 11.6551
559 2 31.6857 7.48259 11.4626
560 2 31.0044 7.51424 10.8279
561 2 40.0382 -4.57048 35.7163
562 2 40.8835 -4.88943 35.3866
563 2 41.2354 -4.80599 36.2875
564 2 41.7451 -4.80549 37.1585
565 2 40.8452 -4.80007 37.4574
566 2 40.0949 -4.32291 37.063
567 2 39.711 -3.71628 36.427
568 2 40.2807 -2.90634 36.5615
569 2 40.2788 -2.53439 37.4273
570 2 40.6298 -3.42143 37.401
571 2 40.4607 -4.13082 38.0833
572 2 40.7757 -4.8198 38.6529
573 2 40.6467 -4.14077 39.3253
574 2 41.3891 -3.95085 38.7412
575 2 41.1153 -3.10122 38.265
576 2 41.7116 -2.59366 37.7331
577 2 7.67652 -7.03879 33.2661
578 2 7.50476 -7.76785 32.6578
579 2 7.31624 -6.99695 32.0573
580 2 7.11788 -6.21119 31.5105
581 2 8.07069 -6.45959 31.3338
582 2 7.78531 -5.84557 30.6135
583 2 7.87616 -5.38544 31.4772
584 2 8.48002 -5.24095 32.2506
585 2 8.51482 -4.41946 31.6531
586 2 7.70826 -3.90097 31.9427
587 2 7.45758 -3.55551 32.8084
588 2 6.5808 -3.88633 32.5095
589 2 6.54472 -4.16869 31.5717
590 2 6.07952 -4.80374 31.0135
591 2 6.63438 -5.54346 30.9748
592 2 6.26984 -5.31441 30.1155
593 2 9.51614 -1.02267 32.5924
594 2 9.78874 -1.8966 32.1951
595 2 9.23947 -2.54822 32.6016
596 2 8.39018 -2.83163 32.2362
597 2 7.77428 -2.55915 32.9635
598 2 8.51644 -2.54502 33.5697
599 2 8.44973 -3.37879 33.1901
600 2 8.9385 -3.89035 32.4972
601 2 9.25255 -3.42433 31.6929
602 2 10.0328 -3.24179 32.3078
603 2 10.432 -2.49401 32.7388
604 2 10.1194 -1.79998 33.2172
605 2 10.9913 -2.03295 33.4345
606 2 10.9154 -2.80554 34.0003
607 2 11.0961 -2.03062 34.507
608 2 10.327 -1.68006 34.9357
609 2 19.4537 9.66679 37.3601
610 2 18.6121 9.64206 37.7173
611 2 18.3782 8.7816 37.9274
612 2 17.5303 8.9971 38.2561
613 2 17.3671 9.6123 38.9787
614 2 17.4958 10.3289 38.2771
615 2 17.6058 9.75477 37.5335
616 2 16.8916 10.1856 37.022
617 2 16.5522 10.7872 37.6297
618 2 16.1772 11.2709 38.4199
619 2 15.789 11.6439 37.6169
620 2 15.739 11.6226 36.6867
621 2 16.5992 11.255 36.7348
622 2 17.5598 11.0221 36.6524
623 2 17.0714 10.5612 36.0067
624 2 17.3047 9.63839 35.9707
625 2 15.0992 13.3522 38.8504
626 2 14.9169 13.3066 37.9183
627 2 15.7592 13.6314 37.6813
628 2 16.1385 13.748 38.5506
629 2 15.9952 12.7399 38.4198
630 2 15.2568 12.0348 38.5052
631 2 14.8879 11.6276 39.3128
632 2 15.2753 10.9204 38.8787
633 2 15.4757 10.6795 37.9752
634 2 15.5105 10.558 37.0072
635 2 15.1743 10.519 36.0708
636 2 14.701 9.80159 36.5046
637 2 14.1411 10.5754 36.2901
638 2 14.631 11.2873 36.6926
639 2 14.3637 11.2976 37.6876
640 2 14.0557 11.0252 38.5973
641 2 31.7005 11.4823 11.3228
642 2 31.7467 10.7196 10.6929
643 2 30.9643 10.2755 10.9755
644 2 30.846 10.8842 11.7411
645 2 30.8438 10.1394 12.2691
646 2 31.6287 9.8668 11.8623
647 2 32.2052 10.6154 11.8979
648 2 33.1313 10.3746 11.9819
649 2 33.3921 11.2995 11.9336
650 2 33.7035 11.3561 12.9078
651 2 32.7883 11.3577 13.312
652 2 32.6477 10.4537 13.2281
653 2 33.2341 10.7141 13.9853
654 2 32.5263 10.2786 14.3965
655 2 32.0039 9.63777 13.8815
656 2 32.8136 9.15874 13.8196
657 2 31.6017 8.48792 8.1759
658 2 31.0706 9.22634 7.89982
659 2 31.5892 9.95716 8.13103
660 2 31.5451 10.7404 7.47238
661 2 31.5027 11.3188 8.31835
662 2 30.8401 12.0787 8.19197
663 2 30.796 12.9807 7.8727
664 2 30.1731 13.4749 8.42529
665 2 31.0809 13.4965 8.71489
666 2 31.2889 12.8918 9.39008
667 2 30.882 11.9652 9.19926
668 2 30.3618 12.6934 8.92811
669 2 30.1895 13.0099 9.79298
670 2 30.4633 12.1961 10.165
671 2 30.7432 11.972 11.0973
672 2 30.1993 12.8131 10.9469
673 2 -3.46226 9.5674 8.02063
674 2 -2.57842 9.72503 7.63109
675 2 -2.54738 9.60244 8.61156
676 2 -2.0185 8.97939 8.00659
677 2 -1.69002 9.92435 8.05012
678 2 -1.47028 10.85 8.03764
679 2 -2.10486 10.7845 7.33136
680 2 -2.28067 11.5452 7.87205
681 2 -1.95269 11.4314 8.82492
682 2 -2.5625 10.7796 8.61819
683 2 -3.50954 10.6278 8.63173
684 2 -4.08655 11.2838 9.01551
685 2 -3.187 11.322 9.34511
686 2 -3.07419 11.807 10.1173
687 2 -2.39665 12.1188 9.57434
688 2 -2.76642 12.8782 10.1109
689 2 -13.5514 35.025 41.9629
690 2 -13.5892 34.0811 41.6987
691 2 -13.5921 33.1416 41.8679
692 2 -13.7627 33.3773 42.8284
693 2 -13.1726 32.5794 42.7938
694 2 -13.0232 32.7866 43.6798
695 2 -12.5802 31.9712 43.7098
696 2 -12.903 31.1215 44.0836
697 2 -13.6569 31.3874 43.4778
698 2 -14.4228 31.2029 43.9753
699 2 -13.686 30.5192 44.1256
700 2 -13.252 30.1437 44.8327
701 2 -13.7676 29.3818 44.5614
702 2 -14.2313 29.7102 43.7936
703 2 -14.3527 28.9928 43.1648
704 2 -13.7437 29.513 42.6941
705 2 -9.82971 34.7415 41.1159
706 2 -10.5771 35.3438 41.0685
707 2 -10.4267 35.0811 42.0016
708 2 -10.6802 34.8311 42.9756
709 2 -11.4573 35.41 42.8222
710 2 -11.624 34.4594 43.1724
711 2 -11.4741 33.8567 42.4199
712 2 -12.1103 33.5498 43.1679
713 2 -12.8514 33.5003 42.5488
714 2 -12.603 34.3665 42.2416
715 2 -12.8379 34.5151 43.1606
716 2 -13.1071 33.7295 43.6407
717 2 -13.6181 33.423 44.4221
718 2 -13.3685 32.8956 45.0852
719 2 -13.7783 32.2109 44.554
720 2 -14.1278 32.3577 43.6632
721 2 18.6445 11.989 35.4509
722 2 18.0911 11.8149 36.1577
723 2 18.8601 11.2576 36.2798
724 2 18.1258 10.818 35.7164
725 2 18.1477 10.0715 35.1261
726 2 17.7074 10.3951 34.274
727 2 18.2499 9.98964 33.579
728 2 19.0953 9.50014 33.4603
729 2 18.7897 9.62728 34.4108
730 2 18.7265 10.5986 34.3059
731 2 18.2363 11.3637 34.5664
732 2 17.33 11.5768 34.2056
733 2 16.6141 11.5421 34.8506
734 2 17.4111 11.0077 35.0979
735 2 17.0365 11.6275 35.7441
736 2 17.6333 12.0868 35.171
737 2 16.5345 10.1606 32.7796
738 2 17.095 10.9253 32.7049
739 2 17.857 11.4601 32.8897
740 2 17.2403 12.1982 32.8608
741 2 16.5919 12.8803 32.6665
742 2 15.9023 13.0406 33.2372
743 2 15.7891 13.5358 34.0637
744 2 15.364 13.3863 34.8708
745 2 15.2393 12.5056 35.2237
746 2 15.8612 13.0696 35.7261
747 2 16.236 12.2802 36.0709
748 2 16.8048 12.6128 35.3228
749 2 17.5009 13.2816 35.3484
750 2 16.7259 13.7122 35.7534
751 2 16.6403 13.5778 34.8194
752 2 16.6773 14.5062 35.0311
753 2 20.583 31.568 39.8852
754 2 20.8764 31.5544 40.8627
755 2 20.3823 32.3979 40.7682
756 2 21.2291 32.8313 40.8131
757 2 21.8138 32.085 40.9744
758 2 21.7595 31.5658 40.2413
759 2 22.606 31.4131 40.7183
760 2 21.8516 31.0497 41.2865
761 2 21.1166 31.2196 41.8946
762 2 21.0203 31.1871 42.9006
763 2 21.077 32.0426 43.3682
764 2 21.2995 32.0853 44.3871
765 2 21.8819 31.7461 45.0991
766 2 21.2418 32.1956 45.6175
767 2 20.5357 32.6508 46.145
768 2 19.9179 33.4195 46.252
769 2 10.7543 27.8009 37.1698
770 2 9.89873 28.2328 37.4528
771 2 9.83984 28.0413 36.4682
772 2 8.83453 28.2025 36.4939
773 2 8.99552 28.2434 35.4873
774 2 9.86171 28.594 35.2691
775 2 10.734 28.7461 34.9161
776 2 11.5162 28.3178 34.633
777 2 10.8806 27.6201 35.097
778 2 11.1486 27.4351 36.0429
779 2 10.2226 27.1315 35.9186
780 2 9.98755 27.0919 34.9509
781 2 10.0004 26.238 35.4126
782 2 10.2889 25.4537 35.9798
783 2 10.9819 25.7491 36.5438
784 2 10.7576 26.4404 37.1788
785 2 12.3454 28.3268 31.8994
786 2 11.498 28.6735 31.429
787 2 11.1648 28.6093 32.3113
788 2 11.5965 28.8706 33.128
789 2 12.2174 28.1814 32.9867
790 2 11.853 27.7868 33.7944
791 2 12.345 27.3662 34.5098
792 2 12.9791 27.3935 33.8117
793 2 13.3522 27.8526 33.0512
794 2 13.5003 27.7172 32.1607
795 2 12.5822 27.3593 32.2842
796 2 12.2225 27.1534 33.1203
797 2 12.4365 26.3179 32.6326
798 2 11.9461 26.2386 33.4457
799 2 11.3263 26.9261 33.6846
800 2 11.0182 26.5334 34.5129
801 2 22.3322 32.1235 39.1032
802 2 22.9734 32.632 39.5784
803 2 22.113 32.7171 40.1485
804 2 21.7945 33.6331 40.0617
805 2 21.6209 33.8097 40.9764
806 2 21.3701 34.6257 40.4031
807 2 20.6259 33.9974 40.5258
808 2 20.5958 33.6516 41.4139
809 2 21.2535 33.1306 41.8626
810 2 21.8532 32.4613 42.1977
811 2 22.6082 32.5285 41.5871
812 2 22.7255 33.1958 40.8882
813 2 22.5042 33.7179 41.7743
814 2 21.7263 34.0522 42.3247
815 2 21.2446 33.6917 43.0807
816 2 21.9292 34.0919 43.7403
817 2 20.0334 31.9041 46.4892
818 2 20.9101 31.461 46.5484
819 2 21.0398 32.2195 47.2172
820 2 21.7733 32.1363 46.6654
821 2 22.7196 31.8082 46.8913
822 2 22.281 31.3742 46.0994
823 2 23.0484 31.1207 45.6172
824 2 23.2025 31.9887 45.9324
825 2 23.2714 32.956 46.294
826 2 22.3439 33.3435 46.1694
827 2 21.6824 33.7257 45.6213
828 2 20.8052 33.9419 46.0364
829 2 20.8036 33.906 45.0752
830 2 20.8319 33.809 44.1294
831 2 20.823 32.9438 43.6606
832 2 21.7371 32.8608 43.5981
833 2 37.6853 30.1475 34.9233
834 2 38.3108 30.1371 35.6502
835 2 38.7345 29.3274 35.9698
836 2 38.4919 28.4948 36.3885
837 2 37.9338 28.7922 35.7034
838 2 37.1826 28.272 36.0956
839 2 37.7803 27.572 36.0589
840 2 37.6666 27.8291 35.1506
841 2 37.395 27.3304 34.4189
842 2 36.7239 27.0356 34.9936
843 2 36.3526 26.5833 34.1912
844 2 36.341 27.536 34.1278
845 2 36.7299 27.1475 33.2758
846 2 37.7138 27.1604 33.208
847 2 38.464 27.2183 33.8418
848 2 38.8759 26.5256 33.4017
849 2 38.6309 29.2271 34.9015
850 2 39.1147 29.8207 34.353
851 2 39.3689 29.9314 35.293
852 2 40.1266 29.8525 34.5421
853 2 39.794 30.7013 34.2273
854 2 39.142 30.719 33.4822
855 2 38.7531 29.9675 33.0822
856 2 38.4728 29.2573 32.476
857 2 38.5229 28.9883 31.539
858 2 39.5004 29.2045 31.6403
859 2 39.4734 30.0017 32.1973
860 2 39.4644 30.9152 32.477
861 2 39.9979 31.1835 33.2449
862 2 40.3538 30.4564 32.8447
863 2 40.4436 30.5015 31.9141
864 2 40.4793 31.4534 31.9496
865 2 8.07039 32.1412 34.7976
866 2 8.82288 31.9024 34.153
867 2 9.04411 31.1694 33.6016
868 2 8.8278 30.3655 34.0921
869 2 9.43448 30.8666 34.6507
870 2 8.77038 31.4188 35.2321
871 2 8.12177 30.7747 35.4974
872 2 7.85576 30.8519 36.4295
873 2 7.10135 30.2522 36.5523
874 2 7.36929 29.3513 36.8226
875 2 6.9141 29.6612 37.6219
876 2 6.2714 29.5462 36.8575
877 2 6.07587 28.9474 37.5858
878 2 6.09198 28.0366 37.2444
879 2 7.13746 28.1817 37.2911
880 2 7.55916 28.6205 37.9957
881 2 7.06889 30.9732 35.7126
882 2 7.14942 31.2495 34.7765
883 2 7.24624 31.6063 33.8661
884 2 8.01753 32.1711 33.5603
885 2 8.05702 32.2129 32.5298
886 2 7.30054 32.2334 32.0133
887 2 6.49296 31.9883 31.6255
888 2 6.17263 32.4629 32.3977
889 2 6.8608 31.8728 32.8211
890 2 6.24079 32.2382 33.4585
891 2 5.25543 32.0942 33.468
892 2 5.06908 31.3828 32.9247
893 2 5.52684 30.6258 32.5362
894 2 6.40091 30.8996 32.3072
895 2 6.84078 30.5241 31.5222
896 2 7.64285 31.0901 31.4148
897 2 17.4398 30.5662 44.8663
898 2 16.9586 29.7808 44.4091
899 2 16.2425 30.2895 44.1029
900 2 15.7273 29.5439 43.7368
901 2 16.1451 29.727 42.9219
902 2 17.016 30.135 43.2637
903 2 17.803 30.7011 42.9362
904 2 18.4498 30.514 42.2247
905 2 18.8637 30.4799 43.1248
906 2 19.2194 29.9131 43.7414
907 2 19.8187 29.7742 44.4884
908 2 19.9256 30.6902 44.7747
909 2 20.4948 30.0806 45.1718
910 2 20.8422 30.9137 45.5146
911 2 20.9588 31.183 44.6056
912 2 20.1449 31.6415 44.3469
913 2 17.8169 40.8235 35.5022
914 2 16.8645 40.6993 35.3192
915 2 17.0683 39.8814 35.778
916 2 16.4406 39.9029 36.5329
917 2 17.059 40.5777 36.7294
918 2 18.0552 40.7431 36.806
919 2 18.392 41.3491 36.1565
920 2 18.6252 42.1034 36.7606
921 2 18.1426 42.6275 37.4927
922 2 18.926 43.1399 37.6319
923 2 18.1746 43.8079 37.3587
924 2 18.4453 44.1036 38.1832
925 2 18.6634 44.3531 39.096
926 2 18.5215 43.4356 39.0616
927 2 18.6753 42.6618 38.5866
928 2 17.8782 42.5203 39.267
929 2 41.6757 29.1217 33.6148
930 2 41.9183 29.5879 34.4377
931 2 41.1533 28.9091 34.4414
932 2 41.0376 29.2182 35.296
933 2 41.365 30.1557 35.4877
934 2 41.1269 30.4515 36.3879
935 2 41.8643 29.8816 36.6316
936 2 41.653 29.0887 36.2858
937 2 42.3378 29.4614 35.7009
938 2 42.6403 28.5789 35.9594
939 2 43.0258 29.2699 36.4578
940 2 43.3239 29.8022 35.6636
941 2 42.7886 30.5583 35.9479
942 2 43.1853 30.4165 36.8238
943 2 42.507 31.1887 36.744
944 2 41.8467 31.071 36.0709
945 2 38.6587 32.6426 34.3146
946 2 38.286 32.6228 35.1821
947 2 38.3799 31.8939 35.7722
948 2 37.9687 31.2609 35.1971
949 2 38.179 31.7409 34.387
950 2 38.3346 30.7839 34.155
951 2 37.9893 29.8932 33.9172
952 2 37.2645 30.4052 33.6729
953 2 36.6393 29.6898 33.6251
954 2 37.3818 29.2665 33.188
955 2 37.6601 28.4881 32.6647
956 2 38.2833 28.6391 33.3334
957 2 37.4483 28.2694 33.7452
958 2 36.6802 28.3519 33.1848
959 2 36.5276 28.7167 34.049
960 2 37.426 29.1429 34.3596
ITEM: TIMESTEP
1000
ITEM: NUMBER OF ATOMS
960
ITEM: BOX BOUNDS pp pp pp
0.0000000000000000e+00 3.2000000000000000e+01
0.0000000000000000e+00 3.2000000000000000e+01
0.0000000000000000e+00 3.2000000000000000e+01
ITEM: ATOMS id type xu yu zu
1 1 -3.17158 10.3242 11.2816
2 1 -2.64339 10.1413 10.4964
3 1 -3.27155 9.40447 10.6225
4 1 -3.68977 8.89077 11.4703
5 1 -2.92408 8.4247 11.4532
6 1 -2.82536 9.38212 11.7433
7 1 -2.0886 9.32743 11.1116
8 1 -2.09378 10.2461 11.4948
9 1 -2.22168 11.0032 11.0172
10 1 -1.68508 10.9568 10.2309
11 1 -1.74678 10.6839 9.29721
12 1 -2.2694 9.84798 9.1982
13 1 -2.7347 8.95688 9.48352
14 1 -2.93641 8.43136 10.2622
15 1 -2.72737 7.5302 10.0272
16 1 -2.20426 7.95101 9.28117
17 1 19.4067 -3.82197 13.2949
18 1 19.9679 -3.07188 13.1489
19 1 20.6404 -3.04975 13.8152
20 1 20.6292 -3.86969 13.1756
21 1 21.5617 -3.5103 13.2479
22 1 22.0984 -3.5502 12.3868
23 1 21.2392 -3.97702 12.288
24 1 20.3861 -3.45853 11.9553
25 1 19.6495 -4.01087 12.0858
26 1 19.4574 -3.0918 11.8804