ITEM: TIMESTEP
0
ITEM: NUMBER OF ATOMS
720
ITEM: BOX BOUNDS pp pp pp
0.0000000000000000e+00 3.2000000000000000e+01
0.0000000000000000e+00 3.2000000000000000e+01
0.0000000000000000e+00 3.2000000000000000e+01
ITEM: ATOMS id type xu yu zu
1 1 49.931 -4.53262 29.539
2 1 49.6512 -5.49846 29.3939
3 1 49.7359 -5.72541 28.4059
4 1 48.8172 -5.67597 28.6518
5 1 48.1341 -5.993 27.9291
6 1 48.0963 -7.07382 28.1021
7 1 47.6126 -7.55936 27.4766
8 1 47.6968 -8.37716 28.0229
9 1 46.7773 -8.74793 27.7115
10 1 46.6891 -7.8703 28.0702
11 1 47.2634 -7.37578 28.5994
12 1 47.1674 -6.90187 29.4398
13 1 -13.6301 -3.50642 33.4034
14 1 -13.5031 -4.21597 32.7421
15 1 -13.8582 -5.05792 32.8293
16 1 -12.94 -5.20113 32.9676
17 1 -12.3531 -4.51272 32.7186
18 1 -12.7395 -4.58692 31.7843
19 1 -12.5954 -4.32983 30.832
20 1 -13.4478 -4.01499 31.0954
21 1 -13.4083 -3.87937 30.151
22 1 -14.312 -3.73399 30.411
23 1 -14.1062 -2.93592 29.9382
24 1 -14.2483 -3.46641 29.1411
25 1 17.5518 -3.47919 27.9529
26 1 18.3644 -3.84314 28.3681
27 1 19.0086 -3.68001 27.5907
28 1 18.9067 -4.5776 27.7371
29 1 18.6494 -4.82628 28.5977
30 1 18.9843 -4.07435 29.1685
31 1 19.897 -4.23491 29.4397
32 1 19.7661 -5.10726 29.1483
33 1 18.9642 -4.99957 29.5967
34 1 18.612 -5.83446 29.2964
35 1 18.2789 -5.61895 30.1946
36 1 18.6952 -5.60375 31.1263
37 1 18.4465 -7.38494 30.8304
38 1 18.3538 -7.79863 31.7683
39 1 18.984 -8.18335 32.3453
40 1 19.5291 -8.77737 31.8993
41 1 18.7955 -8.65056 31.3507
42 1 18.552 -8.93446 30.4327
43 1 18.4262 -9.81064 30.0789
44 1 17.8649 -10.0695 29.3541
45 1 18.0451 -9.32151 28.7994
46 1 18.5007 -8.82822 28.1375
47 1 18.7242 -9.8381 28.1688
48 1 18.921 -10.151 29.0613
49 1 17.502 -9.25337 30.056
50 1 18.014 -8.52313 29.6769
51 1 18.2444 -7.59989 29.8648
52 1 19.2122 -7.7034 29.866
53 1 19.8463 -6.94431 30.2434
54 1 19.414 -6.4569 30.9533
55 1 18.9751 -6.59628 30.0338
56 1 19.5279 -5.81224 30.247
57 1 20.0101 -6.09963 29.462
58 1 20.3779 -5.34431 29.9893
59 1 20.1675 -5.11412 30.9292
60 1 20.7845 -5.81371 30.8793
61 1 49.6434 -10.4168 -1.6077
62 1 50.4305 -10.7735 -1.25091
63 1 51.0736 -10.6212 -0.457529
64 1 50.7036 -9.76515 -0.785824
65 1 50.0404 -10.3231 -0.373232
66 1 49.5214 -10.6693 0.314813
67 1 49.5622 -9.77238 0.585012
68 1 48.6761 -10.1465 0.369629
69 1 47.9087 -9.90389 0.960596
70 1 48.1456 -10.1379 1.85918
71 1 48.4277 -9.19881 1.69831
72 1 48.1451 -9.44729 2.58794
73 1 -10.0708 -1.13073 9.10851
74 1 -10.2021 -1.98071 9.61625
75 1 -10.5565 -2.88002 9.57092
76 1 -10.7123 -3.80623 9.56768
77 1 -9.86906 -3.57089 9.12881
78 1 -9.19036 -3.23817 8.55453
79 1 -8.20863 -3.1537 8.42401
80 1 -8.53835 -3.16261 7.56023
81 1 -8.88045 -4.09236 7.73442
82 1 -9.80879 -4.22339 7.86266
83 1 -9.55828 -3.37861 7.43073
84 1 -10.4085 -3.19511 7.95976
85 1 22.8612 -5.0255 8.65624
86 1 23.3014 -4.20955 8.84865
87 1 23.7748 -4.39004 9.59835
88 1 24.3678 -3.94266 8.95926
89 1 25.2973 -3.92745 8.63233
90 1 24.8286 -3.24592 8.05654
91 1 25.3609 -2.54869 8.32865
92 1 24.5559 -2.15098 7.91158
93 1 23.8507 -2.18334 7.26639
94 1 23.5526 -2.06685 8.1029
95 1 22.8868 -1.36463 7.9874
96 1 22.2522 -2.1166 8.012
97 1 15.89 -10.0843 31.5377
98 1 16.4392 -9.34549 31.1986
99 1 16.0565 -9.19005 32.0531
100 1 15.7398 -8.79989 32.9008
101 1 14.9579 -8.87375 33.3383
102 1 15.3123 -9.55509 33.955
103 1 15.0101 -10.417 34.2264
104 1 15.1259 -11.3596 34.468
105 1 14.6682 -11.6156 33.6789
106 1 14.4194 -11.9721 32.7801
107 1 14.3682 -11.7142 31.8711
108 1 13.5303 -11.5792 32.2615
109 1 23.9788 -6.69573 10.9753
110 1 23.0702 -6.91162 11.1764
111 1 23.1987 -6.04955 10.6627
112 1 24.0514 -5.60236 10.5276
113 1 24.9434 -5.72083 10.2217
114 1 25.8836 -5.79348 9.89024
115 1 25.3408 -5.85029 9.08819
116 1 24.7156 -5.88635 8.33082
117 1 24.2748 -5.61923 9.12601
118 1 23.5412 -5.91751 8.5121
119 1 23.9992 -5.08838 8.36401
120 1 24.1255 -4.19255 8.0188
121 1 24.7382 -2.05915 11.6734
122 1 25.1433 -2.08936 10.8663
123 1 25.9705 -2.03661 10.5161
124 1 25.7926 -2.94447 10.271
125 1 25.4854 -3.66545 10.8411
126 1 25.7492 -2.88199 11.4082
127 1 26.3954 -3.53327 11.5901
128 1 26.7443 -3.02997 10.8424
129 1 26.6247 -3.63468 10.0291
130 1 27.4184 -3.22468 9.71901
131 1 27.4119 -4.19543 9.68083
132 1 27.6185 -3.95083 10.588
133 1 17.162 -5.46645 26.449
134 1 17.0316 -5.65756 27.372
135 1 16.3158 -5.07481 27.0969
136 1 15.7369 -4.71735 27.7553
137 1 15.7693 -5.21605 28.6733
138 1 16.1704 -5.15315 29.5695
139 1 16.9407 -4.67459 29.7616
140 1 16.4027 -4.50673 28.936
141 1 17.3166 -4.30281 28.6061
142 1 17.1891 -4.9143 27.9059
143 1 16.6989 -4.21128 27.5166
144 1 16.0527 -3.52603 27.6514
145 1 17.0427 19.8181 -0.583323
146 1 17.108 20.8364 -0.732763
147 1 17.1217 21.8368 -0.664101
148 1 17.6876 22.533 -0.848444
149 1 17.5127 23.0801 -0.101738
150 1 17.1141 24.0287 -0.120872
151 1 17.5011 23.7923 -0.97361
152 1 17.5374 24.7235 -0.850707
153 1 16.7351 24.5103 -1.26351
154 1 15.8801 25.0381 -1.35508
155 1 16.2247 25.058 -0.427918
156 1 16.4359 24.7523 0.481718
157 1 -5.89295 -4.70219 8.14955
158 1 -6.8131 -4.86113 8.37216
159 1 -6.95822 -4.70635 9.35263
160 1 -7.39805 -4.71718 10.1946
161 1 -6.54594 -4.95619 10.5762
162 1 -6.08911 -5.78939 10.8816
163 1 -5.37402 -6.17807 10.3717
164 1 -5.1286 -5.48615 11.0016
165 1 -5.73728 -4.95397 11.4647
166 1 -5.625 -4.25786 10.7313
167 1 -5.6758 -4.83511 10.0037
168 1 -5.48198 -4.42572 9.14153
169 1 15.761 21.4914 -4.17079
170 1 16.5408 21.1841 -3.58218
171 1 16.9537 21.4854 -4.45606
172 1 17.7215 21.2087 -3.82805
173 1 18.1137 20.7053 -4.54933
174 1 17.864 20.9816 -5.41868
175 1 17.1779 20.5657 -4.92555
176 1 16.9039 20.1003 -5.72095
177 1 17.0297 19.5373 -4.89125
178 1 17.4954 18.8006 -5.29786
179 1 18.0651 18.9586 -4.55491
180 1 18.8599 18.5676 -5.0452
181 1 14.1311 24.709 34.4762
182 1 14.3832 25.5337 34.0395
183 1 14.9219 25.8062 34.7118
184 1 14.3051 26.579 34.5786
185 1 14.8448 26.4092 33.7841
186 1 15.7297 26.5537 34.1673
187 1 16.147 27.1234 33.4153
188 1 16.116 27.4442 32.4994
189 1 15.2169 27.0436 32.5761
190 1 15.2968 27.824 33.1593
191 1 14.4484 27.8065 33.5572
192 1 14.9246 27.3227 34.1977
193 1 18.2278 27.3529 31.9328
194 1 18.0747 26.3443 31.9201
195 1 17.3031 26.8742 31.7023
196 1 16.5099 27.2986 31.3419
197 1 16.5537 28.2914 31.4482
198 1 17.4633 27.9979 31.6154
199 1 17.3852 28.3111 32.54
200 1 17.1844 27.4648 33.0858
201 1 17.6648 27.7928 33.8615
202 1 17.5497 27.9424 34.8075
203 1 17.5462 27.0028 34.9557
204 1 16.8616 26.2573 35.2103
205 1 27.09 -3.21117 8.23878
206 1 26.4258 -3.28132 8.98929
207 1 26.0878 -3.60144 8.11603
208 1 26.3075 -2.79833 7.64354
209 1 26.0598 -1.89722 7.61999
210 1 26.1623 -1.94885 8.61939
211 1 25.7969 -1.0996 8.74401
212 1 25.2967 -1.29991 7.99501
213 1 24.939 -0.568217 8.63716
214 1 25.1576 -0.105939 9.39597
215 1 26.066 -0.0497906 9.20007
216 1 25.8832 0.0945554 8.24458
217 1 13.2736 60.2376 -2.48067
218 1 14.1374 60.6269 -2.58818
219 1 14.4254 61.5069 -2.39115
220 1 13.8491 62.1791 -2.06114
221 1 13.6443 62.0496 -2.99118
222 1 13.0076 61.2323 -3.03079
223 1 12.4065 60.8207 -2.42743
224 1 11.9125 60.0628 -2.07394
225 1 12.1219 59.539 -2.84779
226 1 11.4233 58.8838 -2.64823
227 1 11.9903 58.6323 -1.93939
228 1 12.5635 58.9379 -1.20388
229 1 16.4922 25.1221 3.0375
230 1 16.7392 24.377 3.65571
231 1 17.3605 24.1281 2.83597
232 1 16.3781 24.0192 2.72219
233 1 15.7205 23.4881 2.3476
234 1 16.2419 23.8334 1.58637
235 1 17.1607 23.8127 1.82064
236 1 17.3137 24.1301 0.881858
237 1 17.8354 23.3114 1.00709
238 1 18.8177 23.0919 0.940419
239 1 18.4899 22.7843 0.0756774
240 1 18.7232 21.8814 0.497919
241 1 14.7348 20.2471 -2.77451
242 1 14.2866 20.9432 -2.26593
243 1 15.0487 21.3501 -2.80132
244 1 15.3044 21.0883 -1.91229
245 1 15.7376 21.8971 -1.49878
246 1 16.669 22.1382 -1.8161
247 1 16.666 21.1604 -1.72855
248 1 16.1439 20.952 -0.957148
249 1 16.0949 20.1533 -0.437778
250 1 15.8798 21.0041 0.0733662
251 1 14.9716 21.3009 0.246569
252 1 15.2418 20.646 0.883082
253 1 13.0905 25.8215 0.637946
254 1 12.2909 25.4876 0.278433
255 1 12.5432 25.1011 1.13994
256 1 12.9708 24.472 0.389395
257 1 13.6565 24.2244 -0.296976
258 1 13.9916 24.6623 -1.04397
259 1 14.2073 24.8598 -1.96602
260 1 14.8695 24.3355 -1.59452
261 1 15.198 24.327 -0.711814
262 1 15.4508 23.9361 0.119563
263 1 16.1604 23.6461 -0.458027
264 1 15.5049 23.0158 -0.746682
265 1 15.8301 18.5423 -0.835971
266 1 16.4504 18.5599 -1.56664
267 1 15.5349 18.6463 -1.82307
268 1 14.8622 19.2719 -2.12794
269 1 15.1284 18.9548 -3.05845
270 1 15.2763 19.6515 -3.6915
271 1 16.1114 19.4675 -4.10344
272 1 15.925 20.3996 -4.05244
273 1 15.9978 20.2142 -4.99813
274 1 15.2869 20.898 -4.81938
275 1 14.9303 21.3726 -5.65107
276 1 14.2945 21.312 -4.89205
277 1 22.5819 -2.60668 11.3017
278 1 23.1646 -2.54058 12.1257
279 1 23.3463 -1.6471 11.9866
280 1 24.1556 -1.82971 12.5436
281 1 24.0642 -2.80563 12.4692
282 1 23.5514 -3.45911 11.8667
283 1 23.8151 -4.31561 11.5987
284 1 24.3175 -3.82614 10.9172
285 1 24.622 -3.0894 11.5092
286 1 25.2004 -2.81254 12.2665
287 1 25.3122 -2.70575 13.1874
288 1 26.2354 -2.99655 13.0718
289 1 14.2423 56.9731 -3.8578
290 1 14.9645 57.5166 -4.09921
291 1 14.2771 57.6522 -4.73127
292 1 14.1571 57.8338 -5.62469
293 1 13.3591 57.4452 -5.4969
294 1 13.9915 56.7795 -6.06314
295 1 14.6028 57.1504 -6.69936
296 1 15.169 56.6728 -6.07229
297 1 15.2687 57.4021 -5.45743
298 1 14.6675 56.7967 -5.10376
299 1 13.8383 56.2878 -5.07485
300 1 14.557 55.7797 -5.38929
301 1 45.0553 27.065 29.5931
302 1 45.1045 26.3476 28.9747
303 1 45.7937 26.9139 28.6415
304 1 45.4914 26.3956 27.865
305 1 45.3948 25.3907 27.7037
306 1 45.2145 24.5288 28.1445
307 1 44.8402 24.3291 27.2775
308 1 44.8628 24.2013 26.3547
309 1 44.1792 24.5855 25.7268
310 1 44.3108 25.2128 26.4946
311 1 44.486 25.3578 27.4125
312 1 44.6671 25.7428 28.2867
313 1 17.0417 23.597 -2.02337
314 1 16.2592 23.5841 -1.51074
315 1 15.475 23.4965 -1.94583
316 1 16.1062 24.2445 -2.35793
317 1 16.4873 24.1678 -3.20528
318 1 17.3614 23.9872 -3.03048
319 1 17.1187 24.6731 -2.3447
320 1 17.7347 25.3047 -1.70614
321 1 17.7969 25.4891 -2.64906
322 1 17.1312 25.1406 -3.31012
323 1 16.2748 25.4598 -3.02404
324 1 16.5903 25.5939 -2.11942
325 1 17.4275 23.4852 -3.85516
326 1 17.4136 22.6943 -4.43067
327 1 17.2173 22.157 -3.70384
328 1 16.8972 22.3822 -2.79643
329 1 16.3023 23.1518 -2.86003
330 1 16.3345 22.6096 -3.72435
331 1 15.5479 22.2717 -3.30965
332 1 14.8658 22.2417 -3.95316
333 1 15.4804 22.5498 -4.60289
334 1 15.5425 23.2972 -5.21854
335 1 16.3941 22.8314 -5.32589
336 1 16.2368 22.5571 -6.22591
337 1 17.5749 25.9995 1.06679
338 1 17.8426 25.1164 0.702952
339 1 18.2917 25.4325 1.48426
340 1 18.5228 25.7851 0.589019
341 1 18.3302 25.3526 -0.229521
342 1 17.3277 25.5188 -0.152607
343 1 16.7719 26.0812 0.338866
344 1 16.1681 26.2116 -0.347582
345 1 16.6136 25.7766 -1.10578
346 1 17.5563 26.1012 -1.01837
347 1 17.0297 26.4299 -1.74148
348 1 17.3904 27.2846 -1.32682
349 1 32.3567 50.5333 51.1369
350 1 32.6917 51.2466 51.6682
351 1 32.375 51.5537 50.8577
352 1 33.0744 51.0784 50.4712
353 1 33.6712 50.8499 49.8554
354 1 33.6991 50.2818 50.5792
355 1 33.2713 49.541 50.0259
356 1 33.0157 50.0671 49.1441
357 1 33.3772 49.6476 48.3559
358 1 33.2125 50.555 48.2745
359 1 33.9362 50.658 48.8839
360 1 34.2204 49.8657 49.2359
361 2 11.5203 26.791 31.37
362 2 11.3115 25.9115 31.759
363 2 12.0117 25.9572 31.1524
364 2 12.8878 26.1217 31.4997
365 2 13.7888 25.9671 31.6932
366 2 14.1591 26.1467 32.5088
367 2 14.2023 25.2464 32.1674
368 2 14.4514 24.3151 32.4058
369 2 14.3167 23.3741 32.1719
370 2 14.6643 22.4617 32.3285
371 2 14.707 21.9798 33.1108
372 2 14.1769 21.1448 32.9573
373 2 13.6523 26.7652 30.4435
374 2 13.3935 27.7995 30.5782
375 2 12.5587 28.0877 30.9459
376 2 12.7986 28.9132 31.3367
377 2 11.9469 28.4965 31.7024
378 2 12.104 28.9046 32.5914
379 2 13.0436 29.1337 32.6046
380 2 12.8571 28.1679 32.4016
381 2 13.8175 27.956 32.2409
382 2 13.1769 27.535 31.6859
383 2 13.1622 27.0744 32.5004
384 2 14.0095 27.0368 32.9364
385 2 -7.71288 -2.64736 10.6519
386 2 -8.40377 -2.1516 11.1026
387 2 -8.72947 -2.88766 10.6264
388 2 -8.97947 -2.03445 10.2182
389 2 -8.98643 -1.93201 9.27522
390 2 -9.27613 -2.78224 9.62905
391 2 -9.82055 -3.01774 10.3903
392 2 -9.2799 -3.72979 10.0577
393 2 -8.94016 -4.0983 10.9017
394 2 -9.5045 -4.67626 10.4153
395 2 -8.89054 -5.27458 9.94118
396 2 -9.11427 -5.98837 9.34609
397 2 24.0943 -1.16943 40.2215
398 2 24.7771 -1.57808 40.8189
399 2 24.4929 -1.7577 41.7849
400 2 23.8974 -1.15335 41.4397
401 2 23.1936 -0.894333 42.1456
402 2 23.3708 -1.0715 43.0275
403 2 23.2372 -0.174658 43.1149
404 2 23.5925 -0.549828 43.9453
405 2 24.2429 -0.626602 44.6535
406 2 24.7314 0.107741 44.2175
407 2 25.7025 0.195851 43.9176
408 2 26.5567 -0.192152 43.577
409 2 44.1144 29.6918 30.6415
410 2 44.7406 29.9411 29.8712
411 2 45.0553 29.155 30.3255
412 2 45.3356 29.8805 30.9025
413 2 46.317 29.5283 30.8566
414 2 46.2538 28.6328 30.4413
415 2 45.7639 28.5884 31.2636
416 2 46.4248 27.8651 31.3095
417 2 46.3789 27.0968 31.8457
418 2 46.9172 26.2945 31.6414
419 2 47.4901 25.9253 30.9634
420 2 46.8774 25.2456 31.0743
421 2 25.7599 -3.78339 41.5438
422 2 24.878 -3.62037 41.9618
423 2 24.0161 -3.13495 41.7757
424 2 23.9952 -2.41467 41.1399
425 2 24.8631 -2.78847 41.3297
426 2 25.5325 -2.14747 41.5149
427 2 26.1945 -1.45704 41.5686
428 2 26.8336 -0.970232 41.0848
429 2 27.7824 -0.699796 40.9885
430 2 27.7159 -1.07188 41.8883
431 2 28.4465 -1.60932 41.8709
432 2 28.5076 -1.60292 40.9141
433 2 -1.33881 13.5455 49.2955
434 2 -0.610019 14.1401 49.5861
435 2 -1.1281 14.4291 48.8241
436 2 -0.793148 13.7716 48.1937
437 2 -0.314141 14.5663 47.8471
438 2 0.638147 14.5568 47.9146
439 2 1.56211 14.5686 48.0804
440 2 2.25216 15.238 48.0127
441 2 2.57325 14.352 48.3006
442 2 2.15381 14.0218 49.0525
443 2 2.11983 14.4869 49.9232
444 2 1.17431 14.3648 49.7935
445 2 13.9733 28.2279 28.3925
446 2 14.7189 28.8347 28.3419
447 2 15.2 28.6646 29.1106
448 2 15.1757 27.8078 28.7218
449 2 14.987 27.8371 29.6237
450 2 14.1804 27.3914 29.4228
451 2 14.8956 26.7727 29.5138
452 2 14.6777 26.2679 28.7788
453 2 14.9128 26.7619 27.9632
454 2 14.787 26.4498 27.077
455 2 15.0838 26.4693 26.1828
456 2 16.0936 26.3821 26.0495
457 2 13.6636 23.4964 28.3573
458 2 13.9514 24.2005 28.8772
459 2 14.8724 24.0148 29.3197
460 2 14.1036 23.6594 29.7948
461 2 13.9019 22.8017 30.1474
462 2 13.2123 22.1558 30.1202
463 2 13.0375 22.6767 30.8656
464 2 12.7261 23.2205 31.584
465 2 12.9444 23.9763 31.0291
466 2 12.013 24.0142 31.0302
467 2 11.1809 23.8269 30.681
468 2 10.7503 24.2241 31.4778
469 2 47.3073 27.5373 26.6732
470 2 46.414 27.8442 26.3925
471 2 46.1581 28.4927 27.0574
472 2 46.7004 27.8035 27.4092
473 2 45.848 27.3508 27.4146
474 2 45.0918 27.467 28.0764
475 2 44.4214 26.8551 27.8095
476 2 43.66 26.6821 27.2888
477 2 43.7541 27.4396 26.6912
478 2 44.184 26.7955 26.2407
479 2 44.8623 26.6411 26.8888
480 2 44.7791 27.5932 26.9699
481 2 48.2624 28.0042 30.3993
482 2 47.607 28.5331 30.8951
483 2 47.4614 29.1307 30.1531
484 2 47.7097 29.9694 30.5678
485 2 48.4238 29.9657 29.8766
486 2 48.4806 29.0863 30.2629
487 2 48.6159 28.5136 29.5176
488 2 48.5337 28.4169 28.5719
489 2 47.8949 29.1205 28.4168
490 2 48.7563 29.3286 28.8517
491 2 48.7437 30.2689 28.8316
492 2 47.7058 30.1478 29.129
493 2 29.3612 14.9756 48.3275
494 2 28.7974 14.4712 47.7954
495 2 29.4347 13.8978 47.3283
496 2 30.0975 13.8739 48.0809
497 2 30.3669 14.5914 47.5522
498 2 30.2125 15.4839 47.8653
499 2 31.0898 15.4392 48.1468
500 2 31.9737 15.5518 48.4456
501 2 31.4884 15.2632 49.201
502 2 32.1967 14.6902 48.8917
503 2 32.2354 13.7474 48.9707
504 2 33.1876 13.8335 48.7107
505 2 1.7425 15.1976 49.1738
506 2 1.04498 15.2931 48.6101
507 2 1.2663 15.5672 47.7319
508 2 1.37833 16.3842 48.2083
509 2 2.26491 16.6978 48.4431
510 2 1.65891 16.8686 49.1439
511 2 1.23093 16.2279 49.7285
512 2 0.65956 16.2166 48.8959
513 2 0.659625 17.1329 48.8635
514 2 0.264094 17.702 48.2721
515 2 0.252079 17.6669 47.2966
516 2 0.47788 17.1043 46.5981
517 2 13.8389 21.6259 31.9199
518 2 13.7375 21.7608 31.0388
519 2 14.0692 20.8805 30.939
520 2 14.966 20.4723 31.1289
521 2 14.7733 20.2044 30.2461
522 2 15.6227 19.7313 30.3862
523 2 15.0737 19.3243 31.0277
524 2 15.1818 19.4402 31.9972
525 2 14.3461 18.9573 32.1806
526 2 14.0448 19.2347 31.2722
527 2 13.1529 19.2942 31.5728
528 2 13.2114 19.5219 30.653
529 2 15.5388 23.1649 35.7065
530 2 14.6968 22.957 35.0508
531 2 14.1753 23.6185 34.6147
532 2 14.0843 23.9521 33.7133
533 2 14.3401 24.8063 33.4113
534 2 15.3648 24.5038 33.5883
535 2 15.7793 24.8162 34.3477
536 2 16.4192 24.995 33.6497
537 2 16.4443 25.9029 33.3356
538 2 15.8551 26.0674 32.6448
539 2 15.4125 25.5106 33.2437
540 2 15.1876 25.1236 32.3724
541 2 30.5979 15.5006 50.645
542 2 29.8486 14.8424 50.8768
543 2 29.4124 15.7082 50.5945
544 2 29.3879 16.6562 50.5988
545 2 29.1105 16.5403 49.7029
546 2 29.5008 15.8751 49.1627
547 2 30.3324 15.4281 49.0745
548 2 30.3985 14.7817 49.7333
549 2 29.4647 14.6021 49.6884
550 2 28.7869 14.179 49.0748
551 2 29.3723 13.3461 48.7764
552 2 29.4237 13.015 49.8094
553 2 30.0539 16.6778 48.8855
554 2 30.6903 16.3217 49.4417
555 2 31.5985 16.5613 49.315
556 2 31.1476 16.5094 48.4877
557 2 30.3702 16.5031 47.9134
558 2 30.3599 16.1901 47.0486
559 2 31.1727 15.5987 46.9748
560 2 31.5109 16.3945 46.503
561 2 31.2304 17.2682 46.3692
562 2 30.3946 17.0634 46.0126
563 2 30.7694 18.0275 46.0571
564 2 31.6164 17.8831 45.5972
565 2 33.5922 17.7926 47.0994
566 2 32.8687 18.2035 46.4077
567 2 32.8119 19.0951 46.5981
568 2 32.0379 18.811 47.0373
569 2 31.5267 19.5687 46.6178
570 2 30.9327 19.5528 47.3494
571 2 30.9201 18.7643 46.8462
572 2 30.022 18.9596 47.1304
573 2 29.3249 19.452 47.5394
574 2 28.9377 18.6381 47.1085
575 2 28.9774 18.6895 46.1454
576 2 29.5072 17.9117 45.9477
577 2 -3.4419 17.6723 47.0625
578 2 -2.56298 17.2009 46.8294
579 2 -1.82559 17.7226 46.9725
580 2 -1.77846 17.6056 48.0029
581 2 -0.756292 17.8358 48.0079
582 2 -0.228295 18.6058 47.9469
583 2 0.36231 19.3136 48.1361
584 2 0.0284966 19.969 47.5841
585 2 -0.577564 19.7294 48.3307
586 2 -1.56537 19.683 48.3855
587 2 -2.1035 18.8941 48.5075
588 2 -1.37143 18.7383 47.8878
589 2 -12.3353 22.2763 29.8739
590 2 -12.3051 22.667 29.0226
591 2 -12.0572 23.4889 29.415
592 2 -12.7726 23.9931 28.7984
593 2 -12.5464 24.7051 28.2085
594 2 -11.7013 25.0413 28.4221
595 2 -12.2155 24.8531 29.2423
596 2 -13.1363 25.0042 29.0791
597 2 -13.7135 24.7144 28.2979
598 2 -13.4631 25.6223 28.172
599 2 -12.5873 25.7107 28.5266
600 2 -12.4424 26.6078 28.1829
601 2 47.1315 31.8435 13.511
602 2 46.875 32.4845 14.1998
603 2 47.5503 33.1811 14.3334
604 2 48.4384 33.6509 14.3733
605 2 48.6234 32.7669 14.6132
606 2 48.0244 32.3406 13.9078
607 2 48.2664 31.5175 14.3053
608 2 47.9012 31.4749 15.2377
609 2 47.8045 32.4533 15.2322
610 2 48.593 32.2241 15.735
611 2 49.1242 31.7189 15.1269
612 2 49.1848 31.1909 15.9067
613 2 12.624 21.1639 33.0846
614 2 12.5178 22.1143 33.4181
615 2 13.0981 22.7622 33.7184
616 2 14.021 22.4256 33.8442
617 2 13.8088 22.2214 32.9799
618 2 12.9496 22.2699 32.5685
619 2 13.6241 22.56 31.9582
620 2 13.8029 23.2217 31.3294
621 2 14.6262 23.5067 30.8849
622 2 14.8163 22.6463 30.6189
623 2 14.771 21.8211 31.1374
624 2 14.4421 21.8578 30.2175
625 2 30.9008 19.1134 50.0335
626 2 30.7765 18.2139 50.3222
627 2 30.27 18.1184 51.089
628 2 31.0088 18.005 51.7356
629 2 31.5193 17.4372 51.1806
630 2 30.7599 16.8659 50.7999
631 2 30.1778 17.2495 50.1992
632 2 29.3859 17.7429 49.9392
633 2 29.8483 18.1604 49.2246
634 2 30.7082 17.5531 49.2476
635 2 30.9095 18.4767 49.0679
636 2 31.799 18.7227 48.9268
637 2 33.4541 16.6635 50.7112
638 2 33.3833 17.4654 51.2782
639 2 32.5104 17.4873 50.8788
640 2 32.3948 16.967 51.6896
641 2 32.4427 16.3492 50.8882
642 2 32.3147 15.9599 50.0695
643 2 32.4076 16.9104 49.8579
644 2 31.6065 17.3642 50.0701
645 2 31.998 17.6819 49.3329
646 2 32.3537 18.3582 49.9544
647 2 32.1237 19.2517 49.8263
648 2 32.8211 19.3334 49.1762
649 2 11.9309 57.5101 29.6248
650 2 12.8873 57.64 29.622
651 2 13.3698 57.2165 28.9079
652 2 12.9068 56.41 29.1819
653 2 13.3529 56.3178 29.9887
654 2 13.1251 55.4263 29.8358
655 2 12.302 54.9446 29.654
656 2 12.742 55.2772 28.8272
657 2 13.4059 54.7468 29.1463
658 2 13.8189 54.2411 28.3804
659 2 14.178 54.101 29.2667
660 2 14.4308 54.9739 28.8317
661 2 18.3941 26.0507 34.3767
662 2 17.8999 26.0371 35.2266
663 2 17.4837 25.257 34.825
664 2 17.2333 25.809 34.1121
665 2 17.7237 26.6685 34.0475
666 2 16.7796 26.7119 34.1975
667 2 16.5259 27.4914 34.6501
668 2 16.8473 27.5105 35.5471
669 2 17.7927 27.6224 35.8222
670 2 18.1498 27.4551 36.7194
671 2 18.6181 27.0318 36.0265
672 2 19.1998 26.35 36.3361
673 2 20.0353 22.3173 30.98
674 2 20.7883 23.0074 30.9714
675 2 20.4708 23.6323 30.2486
676 2 19.6794 23.2175 30.6728
677 2 19.5906 24.053 31.0753
678 2 20.1434 24.7569 31.1689
679 2 19.4183 24.8592 31.81
680 2 19.8257 24.3197 32.5197
681 2 19.3445 24.0499 33.318
682 2 18.9265 24.7979 32.8711
683 2 19.519 25.6421 32.7696
684 2 19.9238 25.1656 33.4831
685 2 12.1858 56.0605 64.9289
686 2 11.7959 55.6908 64.1197
687 2 11.8239 56.6181 63.9008
688 2 12.6342 56.7939 63.4546
689 2 12.7582 57.0137 62.5143
690 2 12.7878 57.9014 62.5265
691 2 13.6675 57.658 62.4559
692 2 13.8935 58.0075 61.5411
693 2 14.5688 58.1875 62.2105
694 2 14.6511 58.9124 62.8235
695 2 15.3676 59.5139 62.6542
696 2 15.4423 59.2248 63.5654
697 2 28.5482 31.0179 40.0664
698 2 27.8245 31.0516 39.4597
699 2 27.9582 30.1347 39.7654
700 2 27.064 30.0192 40.0885
701 2 27.462 29.9974 40.9673
702 2 26.7635 29.5749 41.5015
703 2 27.0326 30.2095 42.1637
704 2 27.3094 30.0339 43.0838
705 2 26.8947 30.6017 43.7538
706 2 26.4343 29.8004 43.8851
707 2 27.1991 29.3194 44.1484
708 2 27.7923 30.1186 44.3327
709 2 27.6751 31.8214 42.9619
710 2 27.0913 31.697 42.2492
711 2 26.1166 31.8926 42.3088
712 2 26.2739 31.0482 42.6968
713 2 25.5603 30.8697 43.2511
714 2 25.0631 31.1654 42.4097
715 2 24.1559 31.3858 42.4903
716 2 24.337 30.5442 42.8188
717 2 24.4787 30.9921 43.6689
718 2 25.237 31.2192 44.1645
719 2 26.198 31.0321 44.2338
720 2 26.4576 31.8323 44.6998
ITEM: TIMESTEP
1000
ITEM: NUMBER OF ATOMS
720
ITEM: BOX BOUNDS pp pp pp
0.0000000000000000e+00 3.2000000000000000e+01
0.0000000000000000e+00 3.2000000000000000e+01
0.0000000000000000e+00 3.2000000000000000e+01
ITEM: ATOMS id type xu yu zu
1 1 49.9958 -5.69647 29.6103
2 1 49.3124 -6.16181 29.074
3 1 49.8094 -6.13635 28.2976
4 1 49.3499 -6.9864 28.1074
5 1 48.5377 -6.37342 28.0934
6 1 48.0389 -7.15974 28.2717
7 1 47.0905 -7.33524 28.141
8 1 46.5806 -7.33907 27.3233
9 1 46.2808 -6.39883 27.7217
10 1 45.5324 -6.74629 28.2577
11 1 46.2181 -7.10229 28.8031
12 1 47.1299 -7.00907 29.1827
13 1 -12.8922 -6.37261 32.7563
14 1 -13.1441 -7.29116 32.7685
15 1 -13.9651 -6.85847 32.4731
16 1 -13.3635 -7.01015 31.7221
17 1 -12.4497 -6.66727 31.6887
18 1 -12.5241 -6.1139 30.8872
19 1 -13.4906 -6.12297 30.8475
20 1 -13.1726 -5.23005 31.0047
21 1 -13.6271 -4.9784 30.1984
22 1 -14.411 -5.38356 30.5328
23 1 -14.9608 -5.2537 29.7916
24 1 -14.4202 -4.75466 29.1518
25 1 17.7814 -3.78909 28.8648
26 1 17.4702 -3.43862 28.0652
27 1 18.0014 -2.84805 28.7031
28 1 18.7889 -3.33813 28.7931
29 1 18.4552 -3.91604 29.5616
30 1 18.6483 -4.82131 29.0911
31 1 19.3396 -5.15205 28.5156
32 1 19.0223 -5.92934 29.0582
33 1 18.49 -6.66991 29.0303
34 1 17.9682 -7.15159 29.6734
35 1 18.0809 -7.20899 30.6756
36 1 17.712 -6.58773 31.3028
37 1 18.9912 -8.29293 32.5508
38 1 18.8904 -8.37522 33.5296
39 1 18.0094 -8.77642 33.5983
40 1 18.7678 -9.40563 33.6467
41 1 18.5119 -9.51317 32.7645
42 1 18.6078 -10.1967 32.1656
43 1 18.2483 -9.75538 31.4019
44 1 18.6406 -9.0119 31.8501
45 1 17.9318 -8.78112 31.1988
46 1 17.8898 -9.01868 30.2125
47 1 17.644 -9.78436 29.6994
48 1 18.0274 -10.5415 30.0587
49 1 17.1038 -8.14712 31.3159
50 1 17.9822 -7.90759 31.658
51 1 18.9019 -8.0604 31.2807
52 1 18.9131 -8.8895 30.6548
53 1 19.7996 -8.68216 30.9202
54 1 19.7103 -7.80623 30.4556
55 1 19.157 -7.05526 30.7183
56 1 18.9024 -6.46976 29.9714
57 1 19.807 -6.11794 29.6855
58 1 19.4263 -5.34659 30.2026
59 1 19.8629 -4.9404 30.9716
60 1 19.3346 -4.38913 30.3732
61 1 50.1241 -10.8 -0.506547
62 1 50.7099 -11.4008 -0.961508
63 1 50.8254 -12.3274 -0.634398
64 1 50.0945 -12.8244 -0.203105
65 1 49.9099 -11.8662 -0.105031
66 1 50.1149 -11.158 0.539741
67 1 49.2443 -11.0228 0.766303
68 1 48.9265 -10.7061 1.68601
69 1 48.9268 -11.1429 2.47919
70 1 48.4111 -10.6785 3.12431
71 1 47.7623 -10.5163 2.36301
72 1 46.7425 -10.7768 2.3455
73 1 -9.83472 -2.15553 12.219
74 1 -9.3624 -2.7074 11.5546
75 1 -9.39459 -3.19233 10.6539
76 1 -9.55777 -4.18161 10.6258
77 1 -9.84157 -4.22152 9.69208
78 1 -9.14345 -4.39298 9.10142
79 1 -9.42315 -3.59378 8.70571
80 1 -9.35385 -3.22017 7.84614
81 1 -8.85632 -2.42101 8.01925
82 1 -9.64568 -2.20641 8.60885
83 1 -9.87599 -2.7377 9.3331
84 1 -10.3215 -3.05168 8.53638
85 1 23.1245 -4.1892 8.01632
86 1 23.669 -3.59743 8.55096
87 1 24.1732 -4.3286 8.88048
88 1 24.1848 -4.21752 7.93774
89 1 24.2981 -3.85412 7.0136
90 1 24.6025 -3.36838 7.80411
91 1 23.9933 -2.80038 7.46484
92 1 24.1519 -1.9801 7.99845
93 1 23.5215 -1.28396 7.84047
94 1 22.8674 -0.706836 8.23183
95 1 23.2484 0.0559035 8.76899
96 1 22.9789 -0.687888 9.31806
97 1 16.2156 -8.7917 32.3
98 1 16.1977 -9.18524 33.2031
99 1 16.8159 -9.68371 32.718
100 1 15.9869 -10.2056 32.9324
101 1 15.2131 -9.98595 33.5202
102 1 14.6328 -10.6615 33.123
103 1 15.4218 -11.1275 32.9668
104 1 16.2888 -11.5878 33.1626
105 1 15.7193 -12.3322 33.3053
106 1 14.9465 -12.0319 32.8331
107 1 14.4588 -12.1327 32.0606
108 1 13.605 -11.9935 32.44
109 1 24.4685 -7.38309 8.80345
110 1 24.3231 -6.54295 9.24919
111 1 24.4508 -6.01185 8.4169
112 1 24.3077 -5.76146 7.52794
113 1 24.8377 -6.54621 7.35897
114 1 24.0297 -6.85475 7.87457
115 1 23.5653 -6.61893 7.04615
116 1 22.787 -7.11049 7.05792
117 1 22.6433 -6.56141 7.87541
118 1 23.2086 -5.83674 7.98438
119 1 22.9179 -5.97861 8.87962
120 1 23.7211 -5.3142 8.86447
121 1 24.8502 -2.57211 10.7966
122 1 24.4021 -2.06401 10.1067
123 1 25.3376 -1.98745 10.1601
124 1 25.7685 -2.54941 9.56953
125 1 25.6202 -3.18188 10.3184
126 1 26.5452 -3.4786 10.5946
127 1 27.4169 -3.05842 10.4598
128 1 27.5389 -3.64663 9.64301
129 1 27.2923 -2.71873 9.47
130 1 26.9183 -2.68431 8.48113
131 1 27.661 -2.2925 8.11857
132 1 27.9035 -1.33605 8.25507
133 1 17.6469 -5.306 27.3652
134 1 17.7604 -4.61295 28.0166
135 1 17.0919 -5.22791 28.3527
136 1 16.2827 -5.67186 28.8851
137 1 15.5796 -5.73522 29.5607
138 1 15.3707 -4.83235 29.333
139 1 16.0702 -4.20535 29.6064
140 1 16.6021 -4.48109 28.8467
141 1 16.7259 -3.53568 28.7614
142 1 17.0288 -3.00869 29.4491
143 1 16.7909 -2.06315 29.5691
144 1 17.0679 -2.28763 28.6914
145 1 16.6472 21.0593 -0.666884
146 1 17.072 21.8495 -1.04256
147 1 17.3862 21.9556 -0.121208
148 1 17.324 22.9287 -0.142407
149 1 17.3447 23.2225 0.743903
150 1 16.828 24.0209 0.678584
151 1 16.0503 24.2239 0.125548
152 1 15.7263 24.9339 0.690867
153 1 15.2886 24.9239 -0.212223
154 1 14.7612 25.1888 -0.973094
155 1 15.2751 25.5185 -1.72652
156 1 15.6409 25.7787 -0.903782
157 1 -6.24262 -3.79529 7.73659
158 1 -6.68532 -4.5173 7.29095
159 1 -7.05244 -4.71684 8.15561
160 1 -6.62151 -5.58652 8.25048
161 1 -6.83741 -5.86629 9.15549
162 1 -7.36825 -5.09244 9.51944
163 1 -6.53754 -4.85457 9.20478
164 1 -5.60446 -4.82167 9.31025
165 1 -5.87005 -4.59415 10.2249
166 1 -5.88568 -3.77577 9.62613
167 1 -5.50134 -3.60642 8.75873
168 1 -6.15989 -2.9452 8.6027
169 1 17.9593 22.2973 -3.69703
170 1 18.0537 23.0069 -3.08369
171 1 18.6376 23.5385 -3.68784
172 1 18.1114 23.9475 -4.45355
173 1 18.0068 23.8011 -5.3703
174 1 17.9358 23.0469 -4.83383
175 1 18.6659 22.5654 -5.26818
176 1 17.8439 22.2192 -5.37537
177 1 16.8909 22.1922 -5.4935
178 1 16.7724 21.6607 -4.75524
179 1 17.6522 21.5588 -4.44042
180 1 18.249 21.3049 -3.70436
181 1 16.5351 25.6439 34.7108
182 1 15.6401 26.0231 34.6917
183 1 14.8936 26.4529 34.272
184 1 15.0265 26.6146 33.3395
185 1 15.5663 27.416 33.2844
186 1 15.4076 27.9111 34.1271
187 1 16.3255 27.793 33.7956
188 1 16.6409 27.3449 33.0301
189 1 16.7438 28.2204 32.706
190 1 15.7497 28.3751 32.3056
191 1 14.8377 28.6503 31.9925
192 1 14.2922 29.1424 32.7037
193 1 19.366 26.4502 32.0105
194 1 18.4297 25.971 31.9392
195 1 17.6727 26.4189 31.5227
196 1 17.2841 27.2772 31.4785
197 1 18.2392 27.3313 31.6185
198 1 17.7921 27.9755 32.1876
199 1 17.6363 27.0289 32.5096
200 1 18.5864 27.0235 32.83
201 1 19.0055 26.5436 33.6125
202 1 18.0588 26.2344 33.1972
203 1 18.2898 25.3247 33.4852
204 1 18.4201 24.424 33.7911
205 1 26.204 -2.51704 7.56204
206 1 25.2591 -2.61492 7.3373
207 1 24.7786 -2.41371 6.57527
208 1 24.8367 -1.65906 7.19534
209 1 24.0224 -1.43225 6.75154
210 1 24.4508 -0.589029 6.9702
211 1 25.1793 -0.17979 6.62161
212 1 25.4662 0.365181 7.39311
213 1 24.8754 0.472802 8.1525
214 1 24.6203 -0.199259 8.7734
215 1 24.4257 -0.830936 8.0642
216 1 23.8856 -0.019131 7.90186
217 1 13.4524 60.9605 -1.4136
218 1 13.8875 61.8392 -1.16495
219 1 13.0113 61.8892 -0.734823
220 1 12.2488 61.3603 -1.15247
221 1 12.838 61.8127 -1.8577
222 1 13.1437 61.3095 -2.58328
223 1 13.2833 60.4805 -3.08186
224 1 13.0159 60.1834 -2.16156
225 1 13.5365 59.3841 -2.11726
226 1 13.1326 59.2728 -2.96045
227 1 12.2923 59.5474 -3.20355
228 1 12.233 60.3966 -2.73729
229 1 17.1225 23.6326 1.70915
230 1 16.6682 24.3546 2.00893
231 1 15.9952 23.7134 1.68923
232 1 16.5208 23.2878 2.45093
233 1 15.7803 22.5925 2.38186
234 1 16.2944 22.411 3.14761
235 1 16.8073 22.2817 2.36525
236 1 17.2461 22.5624 1.50122
237 1 17.8387 21.7867 1.36203
238 1 17.9345 21.4965 2.23577
239 1 17.9301 22.4417 2.35585
240 1 18.5287 22.1818 3.07213
241 1 14.1556 21.4355 -3.80578
242 1 14.9775 21.8442 -3.65217
243 1 15.2492 22.1767 -2.77528
244 1 15.6811 22.0713 -1.95764
245 1 16.6164 21.7558 -1.96364
246 1 16.9038 22.6937 -1.78237
247 1 16.6624 22.9272 -0.942165
248 1 15.8096 22.6019 -0.732002
249 1 16.0731 22.017 -0.0682669
250 1 15.8908 21.0825 0.0599856
251 1 15.322 20.6609 -0.638334
252 1 15.5661 21.5714 -0.892793
253 1 11.1545 24.0571 1.64456
254 1 11.9857 24.418 1.74139
255 1 12.566 23.7518 1.51639
256 1 12.5657 24.267 0.708536