ITEM: TIMESTEP
1000
ITEM: NUMBER OF ATOMS
480
ITEM: BOX BOUNDS pp pp pp
0.0000000000000000e+00 3.2000000000000000e+01
0.0000000000000000e+00 3.2000000000000000e+01
0.0000000000000000e+00 3.2000000000000000e+01
ITEM: ATOMS id type xu yu zu
1 1 -0.494881 1.20818 4.66326
2 1 -0.397013 0.233329 4.75506
3 1 -0.625392 -0.693712 4.82223
4 1 0.16806 -0.732251 4.26987
5 1 0.51352 0.233886 4.19328
6 1 0.207329 1.0874 3.7353
7 1 0.23493 1.98224 4.02609
8 1 0.453331 1.36471 4.67976
9 1 6.58564 3.02276 5.36745
10 1 6.24119 2.3092 5.95468
11 1 5.57535 2.13313 6.62501
12 1 5.70717 1.54545 5.87672
13 1 6.07853 0.684819 5.9929
14 1 6.67682 1.03507 5.37154
15 1 6.71408 -0.0928265 5.31427
16 1 7.44441 0.0875108 4.72999
17 1 10.5422 2.07496 3.73766
18 1 11.3068 1.9544 4.419
19 1 10.8993 1.06026 4.5574
20 1 10.567 1.27339 5.45562
21 1 9.84727 0.732894 5.3397
22 1 9.5758 1.07632 4.36663
23 1 9.54839 0.0323457 4.60229
24 1 10.1294 -0.586232 5.07686
25 1 15.4865 -0.938798 5.1767
26 1 15.1976 -1.68641 4.53104
27 1 14.6029 -0.953624 4.16067
28 1 15.037 -0.102261 4.39137
29 1 14.1289 0.308511 4.48029
30 1 13.6849 0.89347 3.94452
31 1 13.9737 1.74235 3.66555
32 1 14.1732 1.41657 2.74334
33 1 19.64 0.366758 3.4469
34 1 20.6135 0.449601 3.77373
35 1 19.8741 0.542302 4.37077
36 1 19.9446 1.35961 4.66638
37 1 20.1333 2.26517 4.66564
38 1 20.4538 1.92173 5.5297
39 1 21.465 1.84698 5.65472
40 1 21.8977 2.58641 5.9546
41 1 27.4875 0.192624 7.08398
42 1 28.1565 -0.0151483 6.40409
43 1 28.498 -0.393348 5.60174
44 1 28.3085 -1.02189 4.85867
45 1 28.0954 -1.85983 4.67345
46 1 27.5696 -2.42115 5.32378
47 1 26.996 -3.09104 5.82265
48 1 27.2514 -3.98124 5.43764
49 1 2.92692 3.95139 3.0214
50 1 2.41576 4.84179 3.21276
51 1 2.40373 4.3995 4.03426
52 1 1.45764 4.41834 4.15073
53 1 1.44127 4.86575 3.34188
54 1 0.785694 4.18073 3.22003
55 1 -0.0545051 4.46592 2.74137
56 1 -0.757936 3.85949 3.00535
57 1 4.63674 5.5538 6.98959
58 1 5.10277 5.76976 6.19804
59 1 4.13891 5.88821 5.65582
60 1 4.29596 6.50388 6.37567
61 1 3.74574 7.11471 5.83427
62 1 3.1821 6.35731 5.61562
63 1 3.31951 5.83225 4.83402
64 1 3.95081 5.10246 4.9012
65 1 8.75041 7.04594 1.57487
66 1 8.4276 7.07729 2.5703
67 1 8.44338 6.15619 2.35283
68 1 7.94385 6.35947 3.17109
69 1 7.58434 7.23827 3.35239
70 1 8.20914 7.44133 4.00973
71 1 8.91155 7.24808 4.54928
72 1 8.13688 6.96263 4.98515
73 1 12.3898 8.01965 1.86633
74 1 12.5905 7.48463 2.57916
75 1 13.4 7.99571 2.85055
76 1 14.046 8.13109 3.81246
77 1 13.5559 7.2951 3.70499
78 1 14.0518 6.67915 4.19167
79 1 14.262 6.5917 5.13935
80 1 14.4507 7.22263 5.85879
81 1 19.9348 5.85658 4.414
82 1 20.2392 5.34247 5.26993
83 1 20.2885 5.9765 5.98443
84 1 19.6293 6.6943 6.26764
85 1 19.7585 7.59003 6.48565
86 1 20.5175 7.1645 6.8846
87 1 20.2923 6.34235 7.18626
88 1 20.3334 5.90068 8.13075
89 1 26.1917 2.43928 5.22282
90 1 25.6654 2.92942 4.62982
91 1 26.4971 3.26414 4.34689
92 1 27.2853 3.71238 4.69585
93 1 27.7679 4.55304 4.56879
94 1 27.6559 3.9772 3.78853
95 1 27.2608 3.12518 3.51244
96 1 26.5637 3.7849 3.45089
97 1 2.60836 11.8292 10.4844
98 1 1.81831 11.5158 10.0751
99 1 1.45883 10.8017 9.67546
100 1 0.858953 10.8592 8.91966
101 1 0.225278 10.4707 8.28517
102 1 0.759674 9.74101 7.84229
103 1 0.580989 9.14441 7.08613
104 1 1.47973 9.50339 7.05149
105 1 4.40469 12.2345 3.30918
106 1 4.3257 13.1716 3.50759
107 1 3.31302 12.835 3.24813
108 1 3.43456 12.8581 4.16903
109 1 3.73207 13.5777 4.68107
110 1 4.2132 14.1707 5.26386
111 1 4.23045 13.8795 6.18963
112 1 4.805 14.6331 5.96086
113 1 11.6506 12.284 5.37777
114 1 11.9142 12.6536 4.54334
115 1 11.1841 12.4624 4.05789
116 1 10.8015 11.5272 4.11406
117 1 10.0864 11.1551 4.69611
118 1 9.23432 11.1704 4.28357
119 1 8.27073 11.3252 4.00588
120 1 8.56324 12.0754 4.68943
121 1 15.6075 14.6709 4.17584
122 1 15.5174 15.6183 4.27004
123 1 14.7172 15.0666 4.49222
124 1 14.8613 14.5731 5.3701
125 1 14.7743 13.678 5.03893
126 1 14.1414 12.8773 5.0936
127 1 13.9115 13.4552 5.93391
128 1 13.9302 12.5134 6.08461
129 1 20.7922 15.3012 7.71315
130 1 21.0336 15.6612 6.8912
131 1 20.8587 14.8405 6.51425
132 1 20.5016 14.6337 5.59764
133 1 20.9179 14.4192 4.60627
134 1 21.3302 13.7682 5.33451
135 1 21.3165 13.3389 4.45062
136 1 21.5465 12.8275 5.20123
137 1 24.9617 8.72811 6.33456
138 1 24.4492 9.42062 6.57232
139 1 25.3878 9.90608 6.4569
140 1 24.6993 10.2308 7.01466
141 1 25.2617 10.3491 7.79322
142 1 26.0803 10.25 7.34514
143 1 26.0149 9.30304 6.84507
144 1 26.0798 8.49073 7.50056
145 1 -1.4099 20.1959 5.83834
146 1 -0.92178 19.4807 5.43828
147 1 -0.0146758 19.7587 5.65777
148 1 0.190126 20.5336 5.15056
149 1 1.09933 20.0071 5.29005
150 1 0.893866 19.0734 5.77296
151 1 0.474634 18.7971 4.91813
152 1 -0.0885774 19.2726 4.32644
153 1 8.08454 18.6308 4.57882
154 1 7.44503 19.3614 4.16659
155 1 6.56794 19.0398 4.38433
156 1 5.77513 19.4448 4.75943
157 1 5.37209 18.6832 4.29177
158 1 5.9861 18.2719 3.77148
159 1 5.83303 17.7518 4.58346
160 1 6.62499 17.0941 4.36056
161 1 8.70424 17.8269 4.42849
162 1 8.52396 17.9478 5.36063
163 1 8.0317 18.7068 5.58131
164 1 8.04441 19.6818 5.25476
165 1 8.30936 19.813 6.27336
166 1 9.03764 19.5327 6.83837
167 1 9.28588 20.4669 6.55878
168 1 10.1041 19.9547 6.71978
169 1 12.8619 18.0236 6.55203
170 1 13.8528 18.099 6.46786
171 1 13.5417 19.0386 6.67593
172 1 13.8787 18.4201 7.50114
173 1 14.6336 18.1033 7.12233
174 1 15.414 17.6761 6.45443
175 1 16.1297 18.1741 6.22343
176 1 16.5813 17.6119 6.76943
177 1 23.3396 16.5583 7.62222
178 1 22.9533 17.3203 7.15271
179 1 23.8454 17.4947 7.50859
180 1 23.5597 17.2769 8.386
181 1 23.1802 18.1536 8.13485
182 1 23.2672 18.2717 7.25324
183 1 23.5436 17.7385 6.48148
184 1 23.0329 17.3742 5.80609
185 1 24.9008 18.904 5.65622
186 1 24.9978 18.4876 6.56025
187 1 24.4982 17.7392 6.13545
188 1 24.6874 17.1883 6.89378
189 1 25.488 17.3044 7.35256
190 1 25.2101 16.3036 7.31439
191 1 24.9107 16.6198 8.19449
192 1 24.7554 17.5516 8.21075
193 1 0.321335 24.3312 4.58811
194 1 0.859246 24.5382 5.33814
195 1 0.100571 25.0925 5.53228
196 1 -0.0501092 25.4399 4.73603
197 1 0.749266 26.0047 4.45289
198 1 0.982093 25.1037 4.21896
199 1 1.19935 24.7734 3.32276
200 1 0.499345 25.3362 3.32164
201 1 3.30422 23.4251 6.08622
202 1 2.86517 23.7357 5.31549
203 1 3.23316 23.3177 4.55851
204 1 3.76654 24.1606 4.23515
205 1 4.15705 23.6658 5.02178
206 1 4.40718 24.5938 5.105
207 1 5.16753 24.7788 4.58024
208 1 5.30624 23.783 4.82713
209 1 12.9671 27.664 4.51945
210 1 12.403 27.2042 5.22754
211 1 11.6612 27.7077 5.05844
212 1 10.9498 26.9601 5.03859
213 1 10.7791 26.0803 4.67512
214 1 11.0119 25.6345 3.90819
215 1 10.8431 24.6317 4.17686
216 1 9.93658 24.9007 4.08881
217 1 14.8891 25.2934 4.40361
218 1 14.4842 24.9625 3.62696
219 1 14.022 24.3349 3.0196
220 1 13.2966 24.2911 3.64694
221 1 13.92 24.5363 4.3548
222 1 12.9421 24.3211 4.69068
223 1 12.3504 23.6364 5.17075
224 1 12.7375 22.7426 4.79451
225 1 16.2791 24.8199 6.4101
226 1 16.501 23.9099 6.15814
227 1 15.8439 23.8481 5.39102
228 1 16.4361 23.1308 5.35029
229 1 17.4227 22.9118 5.61168
230 1 17.5664 22.0451 5.95461
231 1 17.4672 22.4805 6.7606
232 1 17.3597 22.7605 7.62284
233 1 29.0084 24.2468 3.9925
234 1 28.2138 24.2062 3.41968
235 1 27.7145 24.3831 4.26381
236 1 28.2785 25.0866 4.4122
237 1 27.4115 24.9872 4.91631
238 1 26.5851 25.1923 5.53428
239 1 25.9175 24.5601 5.40588
240 1 25.6079 24.4395 4.55249
241 2 0.455436 3.57764 25.663
242 2 0.868283 4.1781 24.8934
243 2 1.255 3.42063 24.5348
244 2 1.42541 2.98291 25.4952
245 2 1.79133 2.56632 24.706
246 2 2.38509 3.00514 24.0652
247 2 1.74622 2.57664 23.4693
248 2 1.63463 1.62321 23.3554
249 2 8.18411 0.47004 22.417
250 2 7.70634 -0.229257 22.9202
251 2 7.21375 -0.207884 23.7052
252 2 7.77486 0.384092 24.2028
253 2 8.20874 0.76727 23.4419
254 2 8.64187 1.63592 23.4879
255 2 7.87496 2.19312 23.503
256 2 7.27185 2.38704 24.3906
257 2 15.3854 5.74596 25.7066
258 2 14.5117 5.41355 25.4477
259 2 13.7177 4.8628 25.5468
260 2 12.8813 4.23973 25.5252
261 2 12.8807 3.36994 26.008
262 2 13.6078 3.24621 25.4121
263 2 12.8477 2.66339 25.2489
264 2 12.2574 2.75727 24.5578
265 2 18.392 0.321034 24.129
266 2 17.8184 0.857135 23.4844
267 2 18.6935 0.538652 23.0851
268 2 19.5907 0.794678 22.8298
269 2 19.6394 0.437975 21.9217
270 2 20.0117 -0.275766 21.3634
271 2 20.8536 0.11912 20.971
272 2 21.1285 -0.566437 21.7467
273 2 21.7491 4.76101 23.8548
274 2 21.7375 4.65867 24.8536
275 2 22.5703 4.05477 24.9922
276 2 22.407 3.67191 25.8513
277 2 21.9829 2.62676 25.4662
278 2 22.2718 2.19904 24.716
279 2 22.2264 1.29789 24.7967
280 2 22.2682 0.52794 25.28
281 2 28.2184 4.10296 23.8217
282 2 29.0782 4.13028 23.4033
283 2 29.1639 4.14877 24.3267
284 2 30.0249 3.75113 24.3834
285 2 30.8079 3.34024 24.7372
286 2 30.3303 4.01723 25.3406
287 2 29.5073 4.36286 25.7094
288 2 28.5377 4.19545 25.7411
289 2 4.57772 7.01759 23.9235
290 2 4.51259 7.88336 23.3868
291 2 4.65474 7.79841 22.4176
292 2 5.48793 8.34537 22.4345
293 2 5.53726 8.46576 23.3504
294 2 5.41294 9.38162 22.9736
295 2 4.86777 9.682 22.3104
296 2 5.29247 10.5087 22.1589
297 2 6.18325 8.15285 24.8032
298 2 5.46422 8.58469 25.2806
299 2 4.7105 8.38583 24.7941
300 2 5.18565 9.07866 24.3291
301 2 4.66863 9.65287 24.9642
302 2 4.46511 10.4139 25.5132
303 2 4.97608 9.64028 26.088
304 2 4.36166 8.96596 26.536
305 2 12.8411 8.86236 22.2428
306 2 13.1225 9.54162 21.6706
307 2 13.11 10.5184 21.6431
308 2 13.8754 10.0716 22.02
309 2 13.9213 10.5276 23.067
310 2 13.7837 10.7391 23.966
311 2 13.1184 11.2079 23.3611
312 2 12.7561 10.5759 23.8756
313 2 15.1811 10.0262 21.1331
314 2 14.552 10.6124 21.4506
315 2 14.6025 10.6837 20.4655
316 2 14.0704 9.87965 20.468
317 2 14.0837 8.89373 20.5766
318 2 14.8515 9.3268 20.1876
319 2 15.3632 8.54692 20.0521
320 2 16.28 8.51725 20.4168
321 2 21.2297 8.76559 22.0987
322 2 21.5379 8.34229 22.9262
323 2 22.0029 8.63133 23.7249
324 2 21.3489 8.65237 24.4932
325 2 20.9186 9.51473 24.726
326 2 21.7602 9.78382 24.293
327 2 21.7879 10.0804 23.3955
328 2 22.7393 9.69597 23.68
329 2 28.5094 10.0555 23.5039
330 2 29.0432 9.37647 24.1507
331 2 29.9455 9.60626 24.2141
332 2 29.929 8.65973 24.5284
333 2 30.5148 8.22018 23.828
334 2 30.0996 8.27997 23.0152
335 2 29.8956 9.36569 23.0588
336 2 29.6274 10.2213 23.3838
337 2 -0.372574 13.0416 24.0883
338 2 0.464496 13.4475 23.6701
339 2 0.995189 12.594 23.698
340 2 2.01252 13.0072 23.5694
341 2 1.72621 13.5168 24.3756
342 2 1.47327 12.9019 25.1286
343 2 0.777192 13.3583 24.7932
344 2 0.0427484 13.868 24.8888
345 2 4.38597 17.642 23.3553
346 2 4.71977 18.4407 23.6589
347 2 5.40759 18.6369 23.003
348 2 5.81016 17.9072 23.4579
349 2 5.86386 16.8873 23.4571
350 2 5.56941 16.7302 24.318
351 2 4.9989 16.0305 24.7196
352 2 4.12358 15.7917 24.4965
353 2 12.137 16.3533 24.8127
354 2 12.2243 16.3352 23.8291
355 2 12.3731 15.3298 23.6923
356 2 12.9775 15.0774 24.4129
357 2 13.1928 14.3854 23.7712
358 2 12.522 14.1309 24.3411
359 2 11.7916 14.7793 24.2913
360 2 11.2918 15.0779 23.5684
361 2 19.8491 14.5994 26.2981
362 2 19.8683 14.288 27.2528
363 2 18.9512 13.9013 26.8772
364 2 19.0197 13.0244 27.364
365 2 18.2251 12.9039 27.9885
366 2 18.1444 13.7448 27.5276
367 2 17.7051 14.4584 26.8644
368 2 17.179 13.69 27.0958
369 2 26.3066 18.4543 22.3329
370 2 27.208 18.0932 22.0654
371 2 27.3692 18.1407 23.0033
372 2 27.7594 17.1924 22.9001
373 2 27.0834 16.925 22.3053
374 2 26.5264 16.4604 21.6259
375 2 26.7084 15.7103 22.1853
376 2 26.6278 14.7057 22.5143
377 2 26.8049 13.7333 25.6686
378 2 26.6021 12.8189 25.8517
379 2 27.345 12.1531 25.8614
380 2 27.7008 11.4317 25.2768
381 2 28.2444 11.7745 24.4635
382 2 27.8077 12.6033 24.2332
383 2 26.9007 12.5685 23.6544
384 2 27.6595 12.5294 23.0428
385 2 4.29116 21.7279 21.2986
386 2 3.37927 21.7477 21.6895
387 2 3.47196 22.6516 21.9806
388 2 2.96942 23.5485 21.7716
389 2 2.76773 24.4451 21.4701
390 2 2.7643 24.2146 20.4793
391 2 3.72122 24.5354 20.4036
392 2 4.41012 24.596 19.7468
393 2 9.8579 21.983 25.9422
394 2 9.24802 22.4436 25.3907
395 2 9.43571 22.2487 24.3646
396 2 8.65729 21.6412 24.0303
397 2 7.88408 21.7923 23.658
398 2 7.70109 21.9035 24.5849
399 2 6.8088 22.165 24.3622
400 2 5.94432 21.7166 24.2107
401 2 14.1716 21.7004 25.6695
402 2 14.4103 22.5418 25.9771
403 2 14.1271 22.4407 25.0059
404 2 14.9025 22.6154 24.5544
405 2 15.3944 21.829 24.4377
406 2 15.7055 22.3337 23.7075
407 2 16.4997 21.85 23.8828
408 2 16.5806 20.9815 23.6469
409 2 17.7672 19.5418 25.6537
410 2 18.2883 20.275 25.4786
411 2 17.8309 21.1785 25.4411
412 2 18.088 20.9837 24.5805
413 2 17.6866 21.1274 23.7639
414 2 18.2574 21.9255 23.8415
415 2 18.2336 22.608 23.2701
416 2 17.3567 22.0111 23.1253
417 2 24.4902 22.1728 24.7436
418 2 23.5981 21.9592 25.1773
419 2 23.454 21.0039 25.1682
420 2 23.0158 21.1511 24.2708
421 2 23.1322 20.3463 23.5996
422 2 22.9251 20.1356 24.6395
423 2 23.4725 19.5106 24.1293
424 2 23.0854 19.1845 24.8683
425 2 30.6007 19.6023 23.4029
426 2 30.9942 20.3261 22.8129
427 2 30.1983 20.9331 22.8891
428 2 29.768 20.1129 22.9818
429 2 29.7659 19.9518 23.9079
430 2 29.411 19.1183 23.5242
431 2 30.3026 18.6562 23.5584
432 2 30.9202 17.9082 23.7485
433 2 0.25338 29.869 23.6959
434 2 0.33698 28.9214 23.3347
435 2 0.991927 29.0378 24.147
436 2 1.62264 29.6904 23.9996
437 2 2.31597 29.3036 23.4949
438 2 2.96088 28.6878 23.7142
439 2 3.34305 28.0072 23.1607
440 2 3.45363 27.2925 22.5649
441 2 11.3138 25.6167 22.9047
442 2 10.7085 24.9219 22.544
443 2 10.3733 25.6351 22.0354
444 2 9.38664 25.7091 21.9225
445 2 9.28537 25.88 22.7908
446 2 8.90352 25.7491 23.6978
447 2 8.1973 25.1007 24.0366
448 2 7.44213 25.1588 23.4377
449 2 13.5356 26.7588 22.5479
450 2 13.1637 25.9854 22.0972
451 2 12.314 25.6937 22.3864
452 2 12.1562 26.6349 21.8267
453 2 11.9379 27.3176 22.4816
454 2 12.1877 28.25 22.8856
455 2 12.362 29.0923 23.3293
456 2 11.5419 29.1125 22.7801
457 2 14.7689 25.3649 22.3474
458 2 15.566 24.7638 22.1734
459 2 16.4169 24.4163 22.3886
460 2 16.8598 25.205 22.1326
461 2 17.5619 25.8561 22.242
462 2 17.8955 26.2531 23.037
463 2 18.7583 25.9372 23.444
464 2 18.2504 25.5536 24.2125
465 2 25.1714 27.7462 22.8865
466 2 24.282 27.8427 23.0759
467 2 24.2055 28.7741 22.6567
468 2 23.3809 29.1791 22.4783
469 2 22.4482 29.4709 22.5555
470 2 21.8313 29.0201 21.8271
471 2 21.5591 28.0709 22.2137
472 2 21.0346 27.8731 21.4108
473 2 28.79 30.44 21.9857
474 2 28.4635 29.5943 22.2757
475 2 29.1394 29.663 23.0897
476 2 28.6531 29.5037 23.8543
477 2 28.6944 28.9874 24.7125
478 2 28.3805 29.6622 25.3093
479 2 27.8425 29.6757 24.5313
480 2 27.2703 29.9499 25.2403
ITEM: TIMESTEP
2000
ITEM: NUMBER OF ATOMS
480
ITEM: BOX BOUNDS pp pp pp
0.0000000000000000e+00 3.2000000000000000e+01
0.0000000000000000e+00 3.2000000000000000e+01
0.0000000000000000e+00 3.2000000000000000e+01
ITEM: ATOMS id type xu yu zu
1 1 0.771533 2.19609 5.48568
2 1 0.126086 2.84473 5.80321
3 1 -0.613426 2.39881 5.40326
4 1 -1.50696 2.0319 5.25584
5 1 -1.54093 2.97037 5.03334
6 1 -2.59176 2.87803 4.95293
7 1 -2.0895 3.54402 4.35522
8 1 -2.39207 3.19999 3.55726
9 1 6.55643 3.62543 3.07362
10 1 7.17621 3.91659 3.78118
11 1 6.90752 2.99304 3.785
12 1 7.76005 2.91692 4.09933
13 1 8.14747 2.48188 4.86319
14 1 7.97087 1.74579 5.38442
15 1 8.66104 1.5229 5.89798
16 1 8.8102 1.27733 6.7877
17 1 10.6839 0.540884 7.52301
18 1 10.9117 1.33319 7.14206
19 1 11.027 2.29464 6.77486
20 1 10.5532 3.11157 6.62013
21 1 10.4276 2.51954 5.87375
22 1 9.43575 2.51533 5.85684
23 1 9.2471 2.22363 4.97115
24 1 9.2974 3.19801 4.90842
25 1 14.0874 2.22277 2.82836
26 1 13.8947 1.7683 3.68524
27 1 14.7626 1.283 3.35297
28 1 15.3038 1.26704 2.5495
29 1 15.5457 1.97675 3.07017
30 1 16.2519 2.14894 3.72297
31 1 16.798 1.89427 4.46001
32 1 17.0339 1.86479 5.40853
33 1 21.9135 3.36651 7.66962
34 1 21.4856 3.38626 6.8682
35 1 20.8454 2.64117 6.583
36 1 20.3582 3.35028 6.1469
37 1 20.1578 2.60657 5.62798
38 1 21.0451 2.9664 5.19254
39 1 21.208 2.20348 5.67994
40 1 21.9427 1.79645 6.07951
41 1 28.1482 -3.95817 9.3173
42 1 28.6361 -4.16785 10.1217
43 1 28.9845 -3.43755 9.52194
44 1 29.6858 -3.91569 9.13136
45 1 29.847 -4.50734 9.93226
46 1 29.4499 -4.19117 10.7782
47 1 29.1247 -3.29669 10.8268
48 1 29.3393 -2.56649 10.343
49 1 2.07956 6.30314 3.63293
50 1 1.30966 5.93545 3.34828
51 1 0.454139 5.59048 3.16659
52 1 -0.100849 6.22677 3.56772
53 1 0.517539 6.86134 4.05892
54 1 0.539834 6.0523 4.69568
55 1 -0.263052 6.48627 5.00827
56 1 -0.658084 6.92632 5.79924
57 1 2.26601 6.76634 6.59215
58 1 1.46427 6.44566 6.13529
59 1 1.48399 6.08653 7.0132
60 1 2.37597 5.68178 6.97971
61 1 2.45553 5.5736 6.07487
62 1 3.07044 4.82206 5.89064
63 1 3.38173 5.68944 5.64069
64 1 3.46843 6.43194 6.44329
65 1 9.23464 5.94195 4.34127
66 1 9.97523 6.70698 4.40264
67 1 9.11442 6.87049 4.27461
68 1 8.47542 7.49491 3.76024
69 1 8.54494 7.96422 4.60602
70 1 8.43595 8.678 3.8989
71 1 8.87274 9.2504 4.54679
72 1 9.71784 8.92875 5.10271
73 1 11.759 3.7206 1.00573
74 1 12.305 4.40631 0.836908
75 1 13.0221 3.67149 0.780136
76 1 13.0106 3.35744 1.61866
77 1 13.7272 3.61107 2.36526
78 1 14.2423 2.86874 1.8207
79 1 14.1711 2.90775 0.853035
80 1 14.7504 2.20751 0.595398
81 1 19.2637 7.84072 3.27858
82 1 19.668 7.29336 4.03785
83 1 19.8728 8.05148 4.67842
84 1 19.343 8.31839 5.44536
85 1 19.8673 8.80275 6.14511
86 1 19.5671 7.78668 6.36549
87 1 20.4693 7.65751 6.04843
88 1 20.2483 6.73956 6.54187
89 1 25.4855 4.36851 6.69664
90 1 26.131 4.57043 6.10154
91 1 26.0934 4.33342 5.15636
92 1 26.6128 3.52518 5.42144
93 1 26.712 3.11061 4.40519
94 1 27.0573 2.20958 4.39458
95 1 26.5056 2.58866 5.16344
96 1 26.0292 2.13979 5.93634
97 1 1.62952 12.8204 8.95887
98 1 0.819 12.6624 8.4273
99 1 1.04001 11.9915 9.12059
100 1 1.33936 11.747 8.24593
101 1 1.69633 11.0262 7.64839
102 1 1.31103 10.0987 7.59916
103 1 1.04603 9.74885 8.47326
104 1 0.645723 8.75735 8.53506
105 1 4.32543 12.4191 2.42602
106 1 4.83252 13.1151 2.8018
107 1 5.16288 13.9324 3.20525
108 1 5.50149 13.5119 4.03084
109 1 5.63248 14.1227 4.85256
110 1 4.91961 14.3147 5.37618
111 1 4.97909 13.4241 5.73516
112 1 4.06481 13.3896 5.25893
113 1 11.8051 10.2449 3.44608
114 1 11.3212 11.0583 3.17463
115 1 10.6027 10.9095 3.79285
116 1 11.2298 11.2902 4.42621
117 1 11.1786 12.1087 5.05008
118 1 10.4398 12.2447 4.29443
119 1 10.3875 12.9302 4.86982
120 1 9.75814 13.6998 5.10994
121 1 10.9845 16.0622 3.02204
122 1 11.5797 16.2707 3.76882
123 1 11.9532 15.9374 4.64417
124 1 11.8003 15.388 5.40052
125 1 12.7667 15.5292 5.46019
126 1 13.5852 15.5791 4.97289
127 1 14.1694 14.8936 5.13568
128 1 13.4363 14.6701 4.55736
129 1 20.9354 15.2521 7.02072
130 1 20.386 15.858 7.45071
131 1 20.2301 15.4369 8.29855
132 1 20.6915 14.6571 8.67884
133 1 21.4923 15.1005 8.74644
134 1 21.6331 15.7955 8.08294
135 1 21.4515 16.481 8.71639
136 1 22.0654 17.1698 8.8234
137 1 23.5601 9.70518 6.0261
138 1 24.0276 10.4288 6.53194
139 1 24.5969 10.0115 5.96821
140 1 24.8759 9.30595 5.45938
141 1 24.7556 9.09182 6.39524
142 1 25.2173 9.51594 7.25652
143 1 24.5522 10.0893 7.63707
144 1 23.6506 9.9671 7.63865
145 1 -1.07607 21.3248 6.43669
146 1 -0.756442 20.696 5.64798
147 1 -0.739384 21.6588 5.48478
148 1 -1.17986 22.2988 4.89613
149 1 -1.27497 22.2897 5.92023
150 1 -1.35239 23.2544 6.29229
151 1 -2.23676 23.162 5.78651
152 1 -2.80538 23.7015 6.13399
153 1 9.14125 18.2989 5.58191
154 1 9.08172 17.3946 5.81908
155 1 8.4958 17.671 6.5286
156 1 7.57719 17.5168 6.15812
157 1 6.72865 17.0931 6.17472
158 1 7.36954 16.5692 6.77392
159 1 7.23732 17.1575 7.53148
160 1 7.21142 17.6991 8.41253
161 1 5.11278 18.3431 6.55208
162 1 5.365 19.2066 6.39183
163 1 6.31174 19.2494 6.27861
164 1 6.35582 19.7996 7.08041
165 1 6.83322 20.217 7.76893
166 1 7.34175 20.2022 6.99327
167 1 7.78636 20.3732 6.22052
168 1 8.38227 20.3206 5.53111
169 1 15.8529 14.02 6.9964
170 1 16.5844 14.3832 7.51204
171 1 15.9311 13.9908 8.24538
172 1 16.5233 14.6417 8.73161
173 1 16.1233 15.509 8.39631
174 1 15.2436 15.554 8.06048
175 1 15.732 15.2205 7.12339
176 1 14.7741 15.2677 7.002
177 1 23.2128 18.3391 9.41245
178 1 23.6764 18.741 8.56495
179 1 22.8403 19.1326 8.13692
180 1 21.9909 19.4923 7.93876
181 1 21.8892 19.306 6.99646
182 1 22.4221 20.1085 7.054
183 1 21.7984 20.7128 7.2961
184 1 20.9833 21.3062 7.40881
185 1 21.5097 20.7684 6.09379
186 1 22.3988 21.1289 6.39912
187 1 22.5717 20.5598 5.58742
188 1 22.234 19.8286 6.06784
189 1 22.5113 18.9215 5.98672
190 1 22.9789 18.9695 6.87545
191 1 23.7558 18.7351 7.4498
192 1 23.4588 18.1696 6.75626
193 1 1.05745 25.2914 4.93674
194 1 1.79085 25.5331 4.29168
195 1 1.18916 26.2877 4.30481
196 1 0.618488 26.753 4.82932
197 1 0.250222 26.364 4.02958
198 1 -0.567644 26.8368 4.17456
199 1 -0.784997 26.3941 3.32991
200 1 -0.601041 25.5052 3.78131
201 1 0.593124 24.5795 3.05554
202 1 1.25425 25.0763 3.58297
203 1 1.67143 24.8308 2.71818
204 1 2.01822 25.6278 2.11031
205 1 1.74658 24.9666 1.42335
206 1 0.810885 25.1473 1.28491
207 1 -0.171849 25.1894 1.63767
208 1 0.0753499 26.0343 1.19624
209 1 10.3757 24.5153 6.50093
210 1 10.8218 24.0893 5.71485
211 1 10.0711 24.1107 4.86565
212 1 10.1555 25.069 4.76551
213 1 10.758 25.2196 5.43
214 1 10.4168 26.1464 5.67903
215 1 9.42075 26.2412 5.61703
216 1 9.72988 25.2106 5.65321
217 1 11.7788 26.0022 4.39734
218 1 12.0831 25.2325 3.84584
219 1 12.9854 25.0909 3.30462
220 1 12.9589 26.0453 3.34479
221 1 12.2544 25.6287 2.75979
222 1 11.7978 24.7938 2.59249
223 1 12.1917 23.8924 2.43851
224 1 11.9479 23.6982 3.35269
225 1 18.3453 22.9353 5.71681
226 1 17.587 22.4329 5.88345
227 1 16.9632 22.0639 6.68268
228 1 16.8355 22.7962 7.36879
229 1 17.031 23.6547 7.72204
230 1 17.7002 23.8497 7.04472
231 1 17.6612 24.3411 7.96841
232 1 18.571 24.5721 8.11092
233 1 28.2977 27.9403 6.05076
234 1 27.4644 28.1951 5.79125
235 1 27.8471 27.3744 5.30491
236 1 27.1282 27.187 6.04333
237 1 26.2526 27.2352 6.45523
238 1 26.3344 28.1022 6.10578
239 1 25.5679 27.6712 5.70575
240 1 24.681 27.5279 5.51598
241 2 3.68768 5.65083 23.3443
242 2 2.87925 5.10692 23.1039
243 2 3.0021 4.29188 23.6441
244 2 2.45867 4.02932 22.8584
245 2 2.49534 3.12866 23.0435
246 2 1.94179 2.28191 23.0325
247 2 2.67384 1.68342 23.0491
248 2 3.58719 1.82734 22.8983
249 2 10.353 1.2138 24.0038
250 2 9.52124 1.47293 24.4893
251 2 8.75433 2.12942 24.6592
252 2 8.85394 3.09293 24.6461
253 2 9.77937 2.86091 24.5272
254 2 9.91664 3.4897 23.7202
255 2 9.42745 3.80936 24.4081
256 2 9.47506 4.72879 24.0327
257 2 12.9068 0.383205 28.8493
258 2 13.5181 0.680681 28.2565
259 2 14.1787 1.35971 27.9224
260 2 15.0792 1.50182 28.2696
261 2 15.4157 1.54334 27.3825
262 2 15.3175 2.37547 26.8143
263 2 15.6706 3.40103 27.0229
264 2 15.0408 3.37051 26.3739
265 2 18.9382 -1.10565 23.102
266 2 18.2 -0.338529 23.3752
267 2 18.1694 0.279114 22.69
268 2 17.7338 0.729656 21.8901
269 2 18.404 1.082 21.4514
270 2 18.9467 0.848255 20.697
271 2 19.1708 -0.060377 20.5599
272 2 18.2286 -0.323755 20.1174
273 2 23.2021 1.80755 24.3212
274 2 23.0357 1.30822 23.5711
275 2 24.0459 1.67397 23.1574
276 2 24.4734 1.24049 23.8785
277 2 25.1371 1.28688 24.6275
278 2 24.8561 1.46953 25.591
279 2 24.5397 2.05824 26.3075
280 2 23.8511 1.42424 25.898
281 2 29.1866 5.06525 23.7235
282 2 29.184 5.83681 24.3024
283 2 29.7674 6.0832 25.1188
284 2 30.1787 6.56718 24.4078
285 2 30.5221 5.66386 24.2002
286 2 31.3679 6.11139 24.281
287 2 31.3851 6.03089 25.1751
288 2 30.691 6.70947 25.3313
289 2 2.85785 8.32994 21.1839
290 2 3.01753 8.88053 21.9506
291 2 3.41881 9.30271 21.1996
292 2 3.78562 9.73663 21.9968
293 2 4.64567 10.3949 22.0609
294 2 4.93871 10.9448 22.7737
295 2 4.55023 11.548 23.3979
296 2 3.91042 11.6454 22.5875
297 2 5.12737 10.3099 25.8836
298 2 4.57072 9.98463 25.0718
299 2 4.77429 9.15183 24.6702
300 2 4.45074 9.49841 23.8503
301 2 3.73327 10.1978 23.5315
302 2 3.14087 10.7936 23.9597
303 2 2.24283 10.3598 24.1213
304 2 1.78547 9.53814 23.7418
305 2 11.8549 10.8291 23.9867
306 2 12.9417 10.811 23.7028
307 2 13.7068 10.2531 23.6543
308 2 14.2009 11.0146 23.3834
309 2 13.8736 11.8407 22.9612
310 2 14.459 12.148 22.2051
311 2 14.7426 12.4411 21.3511
312 2 13.9848 11.9189 21.3804
313 2 12.362 10.2867 21.6804
314 2 12.935 10.8209 22.3476
315 2 13.3999 10.1334 21.9027
316 2 13.7856 9.26075 21.9922
317 2 12.8916 9.2768 22.5484
318 2 12.7059 9.66365 23.3928
319 2 13.6708 9.3151 23.2384
320 2 13.4323 9.36307 24.2104
321 2 20.8122 10.272 23.769
322 2 20.2981 10.19 24.5685
323 2 20.6342 10.2825 25.5315
324 2 19.9004 10.727 26.0871
325 2 19.3282 11.0789 25.5204
326 2 19.5208 10.934 24.4527
327 2 19.1083 11.7574 24.7235
328 2 19.1377 11.5443 23.6987
329 2 30.0974 12.4787 25.4952
330 2 29.7615 12.0429 24.7352
331 2 29.5167 11.1441 24.4015
332 2 29.8341 11.1895 23.4903
333 2 30.5347 10.707 23.944
334 2 31.4323 11.1862 24.2025
335 2 31.381 10.5105 24.883
336 2 30.8511 11.3186 25.3124
337 2 1.56132 12.5428 23.9379
338 2 2.11657 11.9522 23.3979
339 2 1.48814 11.239 23.6897
340 2 1.07675 10.4591 24.0856
341 2 1.54099 10.0104 24.7634
342 2 2.00145 10.3586 25.5507
343 2 1.82052 11.259 25.2602
344 2 2.67207 11.193 24.7897
345 2 0.188239 17.9468 21.7377
346 2 0.0528181 17.1718 22.4809
347 2 1.10535 17.2742 22.1475
348 2 1.26692 16.4524 22.5794
349 2 0.837465 15.6424 22.5093
350 2 0.111602 15.1072 22.1648
351 2 0.191981 15.0261 23.2145
352 2 0.277517 14.1396 23.561
353 2 12.2923 13.9272 25.565
354 2 12.4966 13.7552 24.7039
355 2 11.5442 13.8909 24.3098
356 2 11.6707 14.8375 23.9772
357 2 12.115 15.6185 24.1799
358 2 12.5025 16.5193 24.5121
359 2 12.2947 17.0884 25.3403
360 2 11.9543 17.7788 24.693
361 2 22.1399 14.414 27.693
362 2 21.4509 14.4518 28.3469
363 2 20.4627 14.6307 28.6484
364 2 20.2079 13.708 28.2676
365 2 20.3828 14.4413 27.6868
366 2 20.45 13.9955 26.86
367 2 21.2419 14.6074 26.7374
368 2 20.4129 14.9819 26.3036
369 2 23.8568 16.353 23.8138
370 2 24.3598 16.883 23.2197
371 2 24.6735 17.4602 23.9341
372 2 25.1689 16.5918 23.7051
373 2 25.6156 16.8425 22.9102
374 2 25.6131 17.3819 22.065
375 2 26.3254 18.0808 21.9523
376 2 26.883 17.3661 21.6184
377 2 28.1922 12.4252 24.8822
378 2 27.9765 12.1692 25.8518
379 2 27.7934 11.2162 25.9412
380 2 27.103 11.5183 26.5981
381 2 27.6145 11.7396 27.3329
382 2 27.3825 12.3333 28.0071
383 2 27.6817 13.103 27.3154
384 2 26.9319 13.0175 26.6441
385 2 0.986505 24.1227 20.465
386 2 1.57176 24.6895 19.9262
387 2 2.59002 24.8869 19.806
388 2 2.64571 23.9178 19.7666
389 2 3.00117 23.891 18.8027
390 2 3.47147 23.6224 19.5904
391 2 3.64267 24.4864 20.0139
392 2 4.46481 23.9814 20.2229
393 2 10.8813 24.085 22.5281
394 2 10.7244 25.1302 22.5664
395 2 10.0007 24.8948 21.9376
396 2 9.91833 25.7292 22.6347
397 2 9.15537 25.8163 23.1527
398 2 9.07387 24.8177 23.2311
399 2 9.17498 24.7502 24.1902
400 2 8.71029 25.2686 24.8058
401 2 13.8969 21.1882 23.4321
402 2 13.9567 21.9053 24.0253
403 2 13.9751 22.7716 24.4685
404 2 14.1622 23.5453 25.2006
405 2 15.1331 23.5316 25.2906
406 2 14.8687 23.3556 26.2736
407 2 15.549 23.5204 26.919
408 2 15.45 23.002 27.6641
409 2 17.6612 18.1448 26.4096
410 2 16.8528 18.5196 26.3599
411 2 16.8617 19.3409 25.9876
412 2 17.277 20.0337 25.6336
413 2 16.9292 19.6792 24.8381
414 2 16.3045 20.1852 25.2536
415 2 16.479 20.6274 26.0443
416 2 15.6338 20.8498 26.3921
417 2 23.6859 21.0359 24.8221
418 2 23.7391 20.8293 23.9043
419 2 23.9602 21.8613 23.6191
420 2 23.5303 21.9736 24.506
421 2 23.7533 22.5663 25.2839
422 2 22.88 22.1467 25.4129
423 2 23.0029 22.8677 26.1268
424 2 23.3382 23.698 25.9891
425 2 31.9957 16.9603 24.222
426 2 31.9118 17.738 23.7034
427 2 31.6993 18.6934 23.3895
428 2 30.7718 18.498 23.206
429 2 31.0333 19.098 22.5467
430 2 30.6814 19.5067 23.2836
431 2 29.835 19.0883 23.4384
432 2 29.6261 18.9358 22.5475
433 2 1.34861 31.881 24.6531
434 2 2.10869 32.281 24.2976
435 2 2.3049 31.4046 24.2774
436 2 2.68068 31.1027 25.105
437 2 3.28941 30.9785 25.8667
438 2 2.60479 31.431 26.5476
439 2 1.73069 31.2653 26.0931
440 2 1.77565 32.0242 25.505
441 2 6.92244 25.2892 21.4405
442 2 7.76381 25.5967 21.3077
443 2 8.01925 26.4424 21.0643
444 2 8.72428 26.0558 20.5759
445 2 8.73147 25.2218 21.1059
446 2 9.62332 25.3741 20.8615
447 2 9.41305 25.8917 21.7315
448 2 8.53382 25.734 21.9888
449 2 16.3226 28.4713 20.3626
450 2 15.4522 28.8404 19.9478
451 2 14.9719 28.1375 19.411
452 2 14.628 27.276 19.7472
453 2 14.7626 26.5232 20.3731
454 2 13.8203 26.4386 20.2813
455 2 13.9986 27.2854 20.7544
456 2 14.2279 27.3752 21.6465
457 2 15.6558 23.738 22.7186
458 2 15.9631 24.171 23.5103
459 2 16.128 24.8736 22.8347
460 2 16.8195 25.3512 23.177
461 2 15.8799 25.9064 23.1166
462 2 16.4689 26.2871 23.7498
463 2 17.2475 26.6764 24.0797
464 2 16.9799 26.76 24.9505
465 2 24.1881 27.3965 23.5732
466 2 24.8076 28.0332 22.9693
467 2 24.9728 27.5848 22.1699
468 2 25.6182 28.3168 22.4268
469 2 24.7641 28.6779 22.0175
470 2 24.9702 29.4403 22.6497
471 2 24.1062 29.2684 23.4247
472 2 23.2136 28.9489 23.5147
473 2 30.0334 31.2925 22.114
474 2 29.3932 31.8727 22.3275
475 2 28.7342 31.3469 22.776
476 2 29.0483 30.9685 23.6243
477 2 29.3859 30.7812 24.5245
478 2 30.0815 30.448 23.929
479 2 29.5987 29.7075 23.5332
480 2 29.1198 29.1747 22.8781
ITEM: TIMESTEP
3000
ITEM: NUMBER OF ATOMS
480
ITEM: BOX BOUNDS pp pp pp
0.0000000000000000e+00 3.2000000000000000e+01
0.0000000000000000e+00 3.2000000000000000e+01
0.0000000000000000e+00 3.2000000000000000e+01
ITEM: ATOMS id type xu yu zu
1 1 -1.58871 2.3293 6.25962
2 1 -1.54106 2.75625 5.28983
3 1 -1.67546 3.51112 6.00778
4 1 -0.715526 3.54823 5.83221
5 1 -0.382353 2.58445 5.97183
6 1 -0.689738 2.59903 6.96792
7 1 -0.443372 3.52766 6.86006
8 1 -1.20602 4.10861 6.743
9 1 5.63983 0.732736 3.36877
10 1 5.66411 1.64932 3.46955
11 1 4.88699 1.09661 4.02019
12 1 4.96854 1.90581 4.59575
13 1 5.72208 1.45299 4.98624
14 1 5.17936 1.13599 5.63009
15 1 5.71886 0.886061 6.40806
16 1 5.63664 0.28409 7.27577
17 1 10.022 2.60162 6.04726
18 1 10.9948 2.54376 5.68786
19 1 10.7758 2.41758 4.76499
20 1 10.2549 1.71013 5.07621
21 1 10.9205 1.23942 5.57925
22 1 10.1699 1.36605 6.4531
23 1 10.0339 2.03118 7.09891
24 1 10.8251 2.48801 7.56464
25 1 16.8153 -0.892279 -0.605899
26 1 16.4538 -1.75807 -0.620785
27 1 16.2019 -2.08063 0.153124
28 1 16.9135 -1.42944 0.383441
29 1 16.0826 -1.40614 0.75018