LAMMPS data file via write_data, version 27 Jun 2024, timestep = 100000, units = lj

480 atoms
2 atom types
420 bonds
1 bond types

0 32 xlo xhi
0 32 ylo yhi
0 32 zlo zhi

Masses

1 1
2 1

Pair Coeffs # lj/cut

1 1 1
2 1 1

Bond Coeffs # fene

1 30 1.5 1 1

Atoms # molecular

53 7 1 12.448648674456612 0.8130231482763222 30.312477238713246 -1 0 -1
156 20 1 30.654874731889752 0.36715916824991535 2.9035490456453594 -1 2 0
157 20 1 29.812156271712848 0.014074206749775442 3.0879100283299565 -1 2 0
140 18 1 6.020251175034121 13.349154194492366 30.202250203908932 1 0 0
139 18 1 6.923688347086057 13.581571443849661 30.090254123800214 1 0 0
18 3 1 23.898028406039018 12.024142026329425 30.509228727146542 1 0 -1
222 28 1 20.13343641415531 24.69148855117789 3.6674533483915197 -1 -1 0
223 28 1 19.665407455074774 24.94488384264306 2.9133550732713007 -1 -1 0
170 22 1 27.88361103512819 27.854994311523086 31.4983679730098 -1 -1 -1
169 22 1 28.631783538682594 28.45353568955667 31.376273632117194 -1 -1 -1
183 23 1 10.83843351807012 0.19862699543720003 2.9248240356029442 1 1 1
177 23 1 13.350261620485732 30.774963987110723 2.090843539024692 1 0 1
277 35 2 20.704194473871528 29.0793088508111 3.473900307785485 0 -2 1
182 23 1 10.514041777181871 31.71592561761628 2.1282411933010867 1 0 1
181 23 1 11.581273469657365 31.69529286648918 1.8940899422352997 1 0 1
179 23 1 12.174244113450534 30.783590590994642 2.9428702365309922 1 0 1
180 23 1 12.197893649286732 30.925258952555758 1.9851726399738643 1 0 1
178 23 1 12.696705730302128 30.083949347825563 2.490036657197897 1 0 1
188 24 1 24.789738774676444 0.4172680787753408 3.0254065848487555 0 0 0
153 20 1 29.2120139757376 1.5933195422959046 2.165013105521702 -1 2 0
154 20 1 29.658063204693132 0.963925987859422 2.8151462993380347 -1 2 0
155 20 1 30.22134379420453 0.6353664164308939 2.105126362306754 -1 2 0
160 20 1 28.26489267776202 31.899605826825987 3.2649837608070307 -1 1 0
185 24 1 23.81485203793977 0.001488158549382822 4.389870034462725 0 0 0
192 24 1 24.89573326704387 30.32717856315292 1.3649199843922624 0 -1 0
288 36 2 9.64475133673394 4.983460308166064 2.444876290357349 1 0 1
282 36 2 7.934841799905074 5.929362094412412 0.47425752037089963 1 0 1
281 36 2 7.684556491689473 5.052803227071498 0.8033201706458132 1 0 1
162 21 1 20.0018562747382 9.016556228388353 2.654408744753064 -1 1 -1
163 21 1 19.245651009515296 9.371467149574608 2.2526962468428935 -1 1 -1
164 21 1 18.564522783643636 9.889206290279475 2.741725619071052 -1 1 -1
138 18 1 7.383030352358341 14.30555045135994 30.552372585443358 1 0 0
17 3 1 24.810955052114885 11.825643618818058 30.45251333665553 1 0 -1
137 18 1 8.19131826447846 13.931102156766627 30.932793860003084 1 0 0
224 28 1 20.103441607388273 24.837000518224734 2.1172950042700673 -1 -1 0
220 28 1 19.85686159528593 23.394995923824393 2.9625708867322826 -1 -1 0
386 49 2 16.365709354123766 26.273576670088804 4.36653630942409 0 -1 1
385 49 2 16.31178214692426 25.246181765533684 4.464829218697662 0 -1 1
221 28 1 20.609141053355305 23.923558653954753 3.324394893213598 -1 -1 0
280 35 2 20.977481064013357 27.180926472190013 1.9161105914950187 0 -2 1
279 35 2 20.94930331350303 28.107198741233802 2.0045873143124515 0 -2 1
172 22 1 28.919053953037665 27.14413233426597 0.715699958982705 -1 -1 0
171 22 1 28.35337636142341 27.714119886751227 0.33554563784856717 -1 -1 0
276 35 2 21.027562575071034 29.95407170046849 3.629753757751906 0 -2 1
278 35 2 21.327856128132957 28.694752775516605 2.7529299717036766 0 -2 1
275 35 2 20.56435180072139 30.50277419128548 2.850800285732985 0 -2 1
186 24 1 24.74763385727225 31.7306233194312 4.123648901228156 0 -1 0
187 24 1 25.2511884987081 31.67229173816824 3.3964024477794554 0 -1 0
190 24 1 25.26347255261265 31.618598833687166 1.5640076330429045 0 -1 0
189 24 1 25.381913359418594 0.1688666787757117 2.2767918585400997 0 0 0
191 24 1 25.6532972591503 30.842599613561568 1.0005618108716843 0 -1 0
158 20 1 29.85370311015593 31.550059424962374 3.868926091477383 -1 1 0
159 20 1 29.0062515161777 31.975693604149104 3.8439010510071245 -1 1 0
230 29 1 6.906757023982742 29.982790190388084 2.2244895901327353 0 -1 1
232 29 1 6.3102928719717095 29.498277022148155 1.3207061124156103 0 -1 1
306 39 2 11.004130586384536 1.7283990553925388 2.4147549520085465 -1 0 0
285 36 2 8.054910989353878 4.771165123766576 1.653137151975769 1 0 1
286 36 2 8.697450800381228 3.9594259118846837 1.7264941530886466 1 0 1
287 36 2 9.448716797626611 4.505118904455134 1.685386866509728 1 0 1
308 39 2 11.9767310571258 2.6826051398839628 2.0000047283400244 -1 0 0
307 39 2 11.712377907960224 1.6952452719093032 1.8481689257001617 -1 0 0
284 36 2 7.612024919564123 5.524598460746277 2.1348739655145694 1 0 1
283 36 2 7.760951784411627 6.185112659366163 1.3552695175680785 1 0 1
309 39 2 11.091454140229354 2.7158902488339067 2.3889374392523375 -1 0 0
161 21 1 19.813687988962077 8.257353088044315 3.3049485582971 -1 1 -1
166 21 1 18.419251050978623 11.058290782871236 4.013166737272049 -1 1 -1
167 21 1 17.907037079760595 11.85714801472819 3.5275746083484987 -1 1 -1
37 5 1 18.887870491697836 9.992143948072714 6.981862546169211 1 0 0
165 21 1 18.719478433532945 10.310348041408469 3.568555771537913 -1 1 -1
89 12 1 21.04316845170487 19.613851385659736 6.30533716049584 0 0 0
25 4 1 7.446950408427343 19.33274900165246 4.6871079462448595 1 -1 -1
26 4 1 7.894770914273769 18.60950911965349 4.285084540776169 1 -1 -1
390 49 2 18.581440802890782 25.771614537981357 4.468718815961311 0 -1 1
217 28 1 20.154791186891796 23.4049469483129 4.069928998170022 -1 -1 0
219 28 1 19.73969092011515 22.391306564699892 3.235054660935731 -1 -1 0
218 28 1 19.327441554123688 22.774325553528623 4.000684414658571 -1 -1 0
176 22 1 27.63556678801441 25.329496789055447 31.00490998362663 -1 -1 -1
387 49 2 16.589550429184428 26.123377611510648 3.3838053786156514 0 -1 1
174 22 1 28.57198244048823 26.713144057510387 31.40487314153815 -1 -1 -1
173 22 1 28.227490157461926 26.46508948427038 0.37810172791470137 -1 -1 0
175 22 1 28.291694476227043 26.017044969906895 30.87918642275007 -1 -1 -1
225 29 1 5.1629238771483985 29.335431104622195 1.6637387550611327 0 -1 1
226 29 1 4.720980786375212 30.143335184767565 1.9100760405280146 0 -1 1
273 35 2 19.813187764420263 29.583825764216922 3.4983061608120853 0 -2 1
274 35 2 19.69926574389108 30.464739297421662 3.1797111591433653 0 -2 1
227 29 1 5.470123386558521 30.60626421036635 1.5077915961774169 0 -1 1
231 29 1 6.565818576780228 30.471534712073574 1.5364516551208147 0 -1 1
228 29 1 5.6954595990589025 30.13486429394259 2.223252340646791 0 -1 1
419 53 2 7.220087222047713 2.0801774893309215 5.823149401963944 0 1 0
418 53 2 7.368196447533434 2.408206392065587 4.814696383187939 0 1 0
420 53 2 8.047456990795558 1.6651907148631342 5.865960591500583 0 1 0
310 39 2 11.25854827903607 2.716022099342382 3.321914980207732 -1 0 0
305 39 2 11.683758528716568 1.8639658293691357 3.0944579268609846 -1 0 0
312 39 2 11.532694290898794 4.50149671177174 3.877588341554549 -1 0 0
311 39 2 11.276637412626771 3.680832593520507 3.412169889066849 -1 0 0
39 5 1 19.087440313640652 9.135764496594422 5.320258348798845 1 0 0
168 21 1 18.293151836008843 11.545806392993502 2.716399148325548 -1 1 -1
38 5 1 19.251188004905202 9.50239353132576 6.196849505020014 1 0 0
35 5 1 18.91921911107486 11.159585785611368 6.664432465830502 1 0 0
36 5 1 19.199869372453453 10.720723005703194 7.439494086786773 1 0 0
34 5 1 19.41617642041783 11.863389823399045 6.1966762630038135 1 0 0
91 12 1 20.69575852186146 18.15709390766775 6.30881478172245 0 0 0
92 12 1 21.4338799623438 17.483646000859437 5.9597018922642 0 0 0
90 12 1 20.249211539794256 19.04502021591313 6.592481294566875 0 0 0
375 47 2 25.32367056930628 16.020154491781064 8.11757097787073 1 0 0
261 33 2 27.54311228405151 15.50595119479353 7.450583523087936 0 -1 0
376 47 2 25.459872841530547 15.339702528506615 7.408049674803292 1 0 0
28 4 1 9.426912213532232 18.256576411631293 4.71203114757819 1 -1 -1
29 4 1 9.339359382696104 18.270637448298906 3.7851015212370824 1 -1 -1
27 4 1 8.753214504110742 18.9660856045807 4.279479676438412 1 -1 -1
30 4 1 9.144310230009738 17.252304885968908 3.7759913884447407 1 -1 -1
32 4 1 8.970819066473739 16.965528447212026 2.797913226977682 1 -1 -1
31 4 1 8.506640112967855 17.754702081907794 3.198733969759481 1 -1 -1
392 49 2 18.09967880789815 27.35463199018691 4.8370459078129215 0 -1 1
391 49 2 18.13334514169721 26.417057849177027 4.950904059100768 0 -1 1
389 49 2 17.69668828637912 25.427431056338403 4.344784106164337 0 -1 1
388 49 2 16.96750949304901 25.375357308030615 3.7581457730032493 0 -1 1
417 53 2 8.08657110662915 2.7512043911102264 5.242928795260638 0 1 0
229 29 1 6.2919749580129976 30.295740335210326 2.913596165007645 0 -1 1
422 53 2 9.014344840378147 0.9519199173561674 4.606928085006641 0 1 0
423 53 2 8.832755944675784 31.99883497791678 4.735937694323777 0 0 0
421 53 2 8.208477516898332 1.1250170844822256 5.015039350719536 0 1 0
473 60 2 11.497895360816509 4.399051254373614 9.13110053848059 0 0 0
40 5 1 19.835751956070546 8.635368772925535 5.6957473673708225 1 0 0
33 5 1 19.021583364787627 12.758705910124139 6.495894557104027 1 0 0
370 47 2 24.156531557192178 16.645813989071797 4.889603748779647 1 0 0
369 47 2 24.317301413286266 16.54772107103287 3.7348813490057653 1 0 0
260 33 2 27.28993269636976 16.435863166287618 7.350083025229788 0 -1 0
257 33 2 27.840832677432157 16.024713724127917 6.438970076827463 0 -1 0
95 12 1 18.945959536946777 16.35303947227034 6.1187286230368745 0 0 0
96 12 1 19.173103604088936 16.712626599326665 5.234227623081675 0 0 0
93 12 1 20.48901161267335 17.329292855039217 5.74185650198633 0 0 0
373 47 2 25.87353706880114 16.13842626221247 6.855180846001453 1 0 0
372 47 2 25.31459040500954 16.395642674892187 6.089585444208646 1 0 0
374 47 2 24.94757734115854 16.190644180163467 7.25531640373055 1 0 0
262 33 2 27.59476507754234 14.689641470395234 8.006071504828874 0 -1 0
263 33 2 26.643351617163617 14.86711815061585 7.773363398509551 0 -1 0
259 33 2 27.69460059554841 16.899469801837633 6.676185396300256 0 -1 0
258 33 2 28.312980810217038 16.38397231051467 7.204187204516327 0 -1 0
94 12 1 19.904855733341844 16.49045362479192 6.0508069578340775 0 0 0
264 33 2 26.88542350420588 14.978401131975788 8.732877106928896 0 -1 0
76 10 1 4.184399067936184 19.15566307199748 8.97267697197908 1 0 0
77 10 1 4.005193045017888 18.950935293091554 8.027134124466249 1 0 0
75 10 1 4.589338446986236 18.81650845842371 9.77749368888308 1 0 0
324 41 2 6.398439151190014 24.06218909353333 10.54196282069793 0 0 0
424 53 2 8.506090381482142 31.239897967827954 5.2586510474192 0 0 0
477 60 2 12.677656379710834 3.2484792816497836 10.91738250415668 0 0 0
478 60 2 12.253374242157014 3.088986517489104 10.07371999139037 0 0 0
474 60 2 11.35513064090007 3.777674713474101 9.830840557267093 0 0 0
479 60 2 12.525938756232609 3.556631010288273 9.24556746165005 0 0 0
480 60 2 11.747971279102055 3.3724711274808152 8.748456453745078 0 0 0
371 47 2 24.59639909420828 16.862236319489263 5.760977448764501 1 0 0
80 10 1 5.489551716165498 19.676052854307592 7.383365188940112 1 0 0
79 10 1 4.601567831016309 19.29884362662047 7.21578880935241 1 0 0
78 10 1 4.812700012501822 18.548897491524357 7.77432395218934 1 0 0
74 10 1 4.282011812900387 18.52500396479329 10.671630589492791 1 0 0
73 10 1 3.3830615667949795 18.572169909540776 10.59598616208312 1 0 0
325 41 2 5.5684431909816885 23.757809617341987 10.014397650906313 0 0 0
323 41 2 5.899349771545504 23.513859181718075 11.146264664434053 0 0 0
322 41 2 5.962835953463371 23.757625478975363 12.117756282194689 0 0 0
476 60 2 11.939291824022417 3.7880304086837677 11.028839106153397 0 0 0
475 60 2 11.971099155904989 4.464218184642755 10.270481393566861 0 0 0
465 59 2 18.7878225647754 23.482767170320532 12.433786107277475 0 1 -1
466 59 2 19.03343803299545 22.52756194873449 12.630710396453885 0 1 -1
326 41 2 4.603279739380525 24.3172217197967 10.239224002916595 0 0 0
328 41 2 4.998335995785599 24.21444572223163 11.423619208434557 0 0 0
327 41 2 4.911504054442037 24.928273294660045 10.794791707223704 0 0 0
321 41 2 5.9787456545438555 23.391982252883114 13.005600821400861 0 0 0
270 34 2 8.004390339455892 31.237517695065485 11.742813122110702 0 -1 1
271 34 2 7.752874172952822 31.124355993746452 10.783530377602291 0 -1 1
272 34 2 6.844709954867605 30.786678111633705 10.5227810522978 0 -1 1
60 8 1 0.16072560662247748 17.411036085136875 14.567662677584279 0 0 0
61 8 1 31.246411497525003 17.597653714356998 14.879351141405172 -1 0 0
59 8 1 0.12372282166266545 16.450007824117005 14.750428448186506 0 0 0
467 59 2 18.649417782211415 22.589898850299086 13.503719520697523 0 1 -1
469 59 2 19.655635603724278 22.849275384980942 13.75661246597252 0 1 -1
468 59 2 19.340149532903677 21.973308343004682 13.49841162757337 0 1 -1
470 59 2 20.562977255747487 23.10380057909343 13.870130294071124 0 1 -1
268 34 2 8.108839979116595 30.023895002448796 11.912727745328954 0 -1 1
269 34 2 8.391683639878979 30.670941905690434 12.514086965887557 0 -1 1
330 42 2 17.440668486516998 10.027527566818701 15.550038540517406 0 1 0
117 15 1 16.593451411384223 18.762857770479457 14.87013977503193 0 0 -1
116 15 1 16.278704728081397 18.934834391554194 14.01250834825085 0 0 -1
119 15 1 17.695295074903168 18.62087201796782 16.111509422040267 0 0 -1
120 15 1 17.081169716976312 17.912585802759416 15.988984825865995 0 0 -1
115 15 1 15.60884165961048 19.044559752983655 14.702500597545017 0 0 -1
113 15 1 16.245663699373313 18.488553604602924 16.384409900524545 0 0 -1
58 8 1 0.08232895684900916 15.47296448844827 14.95894519877884 0 0 0
109 14 1 20.643881859661477 19.80021219956102 9.740119813428157 -1 -1 0
110 14 1 20.246479452366884 19.00298264414808 10.11076045166067 -1 -1 0
108 14 1 19.849930942453124 20.1792380918002 10.044550148151313 -1 -1 0
107 14 1 19.64124126336741 20.24779908540199 9.10309408117515 -1 -1 0
62 8 1 31.104231782834233 18.524087099780626 14.81082301135503 -1 0 0
63 8 1 31.10765083601298 19.01643244609714 14.014778209186014 -1 0 0
64 8 1 30.855074040846812 18.75269820990378 13.143612101795224 -1 0 0
111 14 1 19.961067939085552 18.171700259798712 10.041732968326903 -1 -1 0
105 14 1 19.17160823642414 18.840567505020857 8.698130376571202 -1 -1 0
106 14 1 19.25025159435316 19.44194326378202 9.49949812046226 -1 -1 0
472 59 2 20.002964301947 22.807292387721464 14.79788898156476 0 1 -1
471 59 2 21.046668953138912 22.67887043252014 14.589523841655154 0 1 -1
267 34 2 8.4914321016022 29.204191262001224 12.142661944925402 0 -1 1
266 34 2 7.939146981390646 28.411245364529734 12.30602440681981 0 -1 1
265 34 2 7.491641853797311 28.30344815252108 13.145649596893275 0 -1 1
331 42 2 18.322335372375036 9.793678936730473 15.209755091921274 0 1 0
118 15 1 16.932568410349134 18.952751489713275 15.771898824923117 0 0 -1
329 42 2 17.141343562877147 9.641935062889157 14.695071821632425 0 1 0
416 52 2 13.388883354511561 16.29033121907539 16.823427444888864 0 0 0
114 15 1 15.658097376123424 18.645713779123714 15.662665081492683 0 0 -1
57 8 1 0.6726458612970887 15.069531330597313 14.347141941309932 0 0 0
112 14 1 19.492325225691097 18.672972144098328 10.711200040185066 -1 -1 0
207 26 1 16.359182169459192 24.543669889177416 13.0710753049594 0 0 0
206 26 1 17.087376223052853 23.87459984821247 13.28383501800853 0 0 0
208 26 1 17.29102842548514 24.74695309296482 12.779207201502494 0 0 0
205 26 1 17.955287488889624 23.636452078839305 13.214264523060995 0 0 0
204 26 1 18.699475172445485 24.135595325616332 13.50244722058648 0 0 0
367 46 2 14.086479544980401 26.013763782420522 15.213127992205537 1 -1 0
334 42 2 18.473582752697045 8.71314166818301 15.81283715008635 0 1 0
333 42 2 19.336360222936285 8.93419436740535 16.30885811646908 0 1 0
332 42 2 18.751495556027272 9.639075342281053 16.096926551277626 0 1 0
415 52 2 13.618315099342189 15.905344599704573 15.970361140045483 0 0 0
410 52 2 16.055545625660464 16.167050356290833 15.426409551950865 0 0 0
414 52 2 14.46825252508687 15.796145396003112 15.543130158472858 0 0 0
413 52 2 14.783710033321048 15.395018165853903 16.35454891920353 0 0 0
203 26 1 18.29514097321806 23.464702930511503 14.172152882790606 0 0 0
368 46 2 14.976856619153702 26.125471078817778 15.62546216126059 1 -1 0
365 46 2 14.37857214391595 25.24869283676557 14.695727204808573 1 -1 0
363 46 2 13.685845122184132 25.42742472886702 16.400895149748234 1 -1 0
364 46 2 13.729941156377606 25.123560049045086 15.455819390599158 1 -1 0
366 46 2 14.440741469170932 26.190971920902438 14.233996440286846 1 -1 0
336 42 2 17.411632523644876 8.456270913457267 16.433841122583058 0 1 0
335 42 2 17.64087466595941 8.27768527671306 15.49610094644374 0 1 0
215 27 1 22.057048871677004 11.590761995152864 17.684252071469803 -2 0 0
211 27 1 22.58111270964805 14.054928121315196 16.181912128056076 -2 0 0
210 27 1 23.503948505546326 14.470364511083687 16.09448376194111 -2 0 0
352 44 2 27.578366249593763 7.918720820991495 16.78356397613137 0 0 1
213 27 1 21.67348464476767 12.991722304212816 16.95778244682136 -2 0 0
212 27 1 22.332655610462393 13.06405405132868 16.116234120847736 -2 0 0
409 52 2 16.879182772283656 16.864400675703756 15.261655301223042 0 0 0
411 52 2 15.568987559654113 16.276374354252255 16.339521669845087 0 0 0
412 52 2 15.695397310059699 15.360321905290514 16.01169366035615 0 0 0
201 26 1 18.25957092116969 24.946357895385695 14.058597535700619 0 0 0
202 26 1 17.782924034894084 24.284657396170896 14.483732014619644 0 0 0
362 46 2 13.23379279727507 25.960101279153605 15.79355115220258 1 -1 0
361 46 2 14.014677958282578 26.415436985678433 16.34186360159831 1 -1 0
151 19 1 2.2707165406973693 30.8772508101749 18.252176371860422 -1 0 -1
150 19 1 2.6803934925857655 30.809656607415338 17.32923819596645 -1 0 -1
148 19 1 3.6483818870337976 30.663117087443457 18.371250297564746 -1 0 -1
149 19 1 3.5580367646056765 30.525062401800458 17.42517636777018 -1 0 -1
147 19 1 3.7670481450748987 29.867042066465334 18.898180184322978 -1 0 -1
449 57 2 3.70027327239517 2.4664948417102943 20.970780385241323 0 1 0
450 57 2 2.8479386912183497 2.0325653483240953 21.301005433397474 0 1 0
451 57 2 3.3719502055022974 1.2384695960405137 21.18910448017794 0 1 0
395 50 2 24.72266088737762 4.64376323088083 19.950616594267647 0 1 1
398 50 2 25.8595796862105 5.144410074059932 21.284780732676303 0 1 1
345 44 2 29.502719339487687 9.745216671986366 16.912511416048904 0 0 1
216 27 1 22.4226332088381 12.30864164583997 18.327499078723214 -2 0 0
209 27 1 22.881324957724708 14.728213779782989 15.256838976628115 -2 0 0
350 44 2 28.447870326948383 8.160253166503981 17.5049601120179 0 0 1
351 44 2 27.786799884509975 7.43416456251028 17.589163378781485 0 0 1
348 44 2 28.459769393908648 9.200738707467824 18.524113457864107 0 0 1
349 44 2 27.782521478353438 8.599577464426554 18.15377705778566 0 0 1
346 44 2 28.94772709521998 9.993197490009464 17.634363053234644 0 0 1
214 27 1 21.533623674426245 12.388268238279771 17.67447838148416 -2 0 0
295 37 2 28.198278525530323 8.745594533839812 19.755992758946345 -1 1 -1
290 37 2 28.40613676225495 11.330487585612738 19.815945713833127 -1 1 -1
289 37 2 28.34646580582086 11.937088962654567 19.033949563742343 -1 1 -1
294 37 2 28.218379340456977 9.760120255265015 19.43300585171548 -1 1 -1
291 37 2 27.687301079161383 10.708634270243516 19.56651836570963 -1 1 -1
293 37 2 28.974587350470888 9.857679755968201 18.871267368850102 -1 1 -1
292 37 2 28.44783643551966 10.668710109113999 19.01990395852087 -1 1 -1
447 56 2 0.37686216837895 23.510857699912993 17.320950164660132 1 0 0
448 56 2 31.98677918543531 24.3180645146025 17.62284328524767 0 0 0
88 11 1 2.2825541580752655 24.95342124533629 18.041593457382795 1 -1 0
81 11 1 0.5743768193874123 24.7110477428455 18.65810619970336 1 -1 0
82 11 1 0.07993758011096039 25.637185475937596 18.532664142971004 1 -1 0
87 11 1 1.6170281278410863 24.439736748930326 18.48569739430887 1 -1 0
86 11 1 1.941403740214888 25.25470175297956 18.897635869012795 1 -1 0
83 11 1 0.5834703552587482 26.189614665111804 17.921168012932956 1 -1 0
85 11 1 1.4646291395342228 26.076287945764655 18.67479316781856 1 -1 0
84 11 1 1.285867143609825 25.50758222581911 18.008072835953538 1 -1 0
152 19 1 2.557918878087986 31.780184142238912 18.5419761347736 -1 0 -1
146 19 1 2.8081664929919423 30.059818286917643 18.952267741736346 -1 0 -1
456 57 2 3.436729856714974 0.28162756474192696 20.200357242723054 0 1 0
455 57 2 4.383377820863619 0.44752360740432806 19.860974957555523 0 1 0
453 57 2 3.118899211580366 1.3791076397892315 19.965106900869056 0 1 0
452 57 2 2.4476458664183163 1.2675711509291359 20.71862220375656 0 1 0
396 50 2 24.92264372631877 4.4855983799803125 20.964344618969093 0 1 1
394 50 2 24.2999144542281 5.308675882288998 20.568210963064068 0 1 1
393 50 2 23.68875712578174 6.121268731937256 20.823617473218153 0 1 1
397 50 2 25.498378195971554 4.449778708843937 21.77796711698578 0 1 1
399 50 2 26.90302291479795 5.389692414173589 21.409228269159918 0 1 1
400 50 2 27.134190970240816 5.629212096682745 20.540534672698218 0 1 1
99 13 1 11.603844180502906 11.16158780923454 20.13767702674911 -1 0 -1
98 13 1 11.442547859828736 10.454165013754334 20.749138026422155 -1 0 -1
100 13 1 10.733436788649051 10.984564727692868 19.76328720843377 -1 0 -1
104 13 1 7.74479870138804 12.227905475257913 19.68694485419066 -1 0 -1
103 13 1 8.392236151668653 11.576189377796043 19.6192329072936 -1 0 -1
102 13 1 9.229110947804507 11.968551311694442 20.16666892346563 -1 0 -1
347 44 2 28.039693881871845 9.779914602603377 17.80825091710558 0 0 1
296 37 2 28.11408676218909 7.714554195727023 19.700485230261247 -1 1 -1
249 32 2 13.111757136900877 18.938500752029537 22.617987873299846 0 -1 0
446 56 2 1.033727076015888 24.056804666486443 17.79540113561602 1 0 0
445 56 2 0.9452246445009149 24.35258181909024 16.87353618886386 1 0 0
252 32 2 14.353855654439357 20.367426246912434 22.53690407925064 0 -1 0
441 56 2 1.5969200695896995 21.42584494563007 17.932806690925435 1 0 0
442 56 2 1.612178310618869 22.287021871873137 17.606807939407265 1 0 0
443 56 2 1.2722843534736554 22.622458813201035 16.705062062866794 1 0 0
444 56 2 1.5638303258539765 23.51852312943699 16.87118784052705 1 0 0
145 19 1 3.0946865785135733 30.557108856798855 19.66817213258823 -1 0 -1
454 57 2 4.090620857644394 1.308119328598685 19.93181341621489 0 1 0
97 13 1 12.032585566639245 10.907170843711206 21.206664425931173 -1 0 -1
101 13 1 9.92695726191828 11.229982131374138 20.172371459575057 -1 0 -1
130 17 1 6.20931627351082 13.194551819245486 22.6818804506167 1 1 -1
129 17 1 5.343671140624677 13.640868250174647 22.326037272917066 1 1 -1
48 6 1 31.05932102647898 21.000474546238635 19.75418653115855 0 -1 -1
46 6 1 30.85302089852992 20.343408544452053 20.792429817390975 0 -1 -1
47 6 1 30.659175293938496 21.218858569780153 20.53081786373273 0 -1 -1
45 6 1 30.06466746172525 20.385773614549095 20.18285525535573 0 -1 -1
256 32 2 14.208825609397278 19.153857162000822 19.958494850635866 0 -1 0
250 32 2 13.04123271870399 19.625124962697992 21.986471084163178 0 -1 0
42 6 1 29.44043730903333 19.136055513513682 19.162228716566933 0 -1 -1
43 6 1 29.42378253232352 19.22667435887095 20.132521052159976 0 -1 -1
44 6 1 30.208470808328393 19.56760222958 19.701002625570606 0 -1 -1
254 32 2 14.00367307078726 19.538143716844505 21.607827626214586 0 -1 0
255 32 2 13.99666506494134 19.904536206275786 20.647752262953553 0 -1 0
251 32 2 13.447727864906264 20.11844878460837 22.71841577455239 0 -1 0
253 32 2 14.664278769805522 19.52994036526219 22.31765358508336 0 -1 0
126 16 1 30.954675889932314 25.952350561003026 22.580036331645584 -1 0 -1
128 16 1 30.048962658414958 26.27293343465225 21.659119884067586 -1 0 -1
127 16 1 30.415405288801384 25.346425280860537 21.950062181517957 -1 0 -1
125 16 1 31.172738591363277 25.82266961942532 23.53953003913974 -1 0 -1
124 16 1 30.283748287423368 26.131754791334778 23.5946406126233 -1 0 -1
122 16 1 30.16508302788383 27.536335312026406 23.88577603908413 -1 0 -1
297 38 2 22.87609512540908 31.57381714204488 23.70365691890289 0 0 1
298 38 2 22.451595709215837 31.7510379242188 24.552569617265185 0 0 1
354 45 2 30.87992122809021 6.794649325408447 23.467748378171496 0 0 0
353 45 2 30.69788464697128 7.723725075726117 23.015074753532566 0 0 0
136 17 1 4.194028220829454 11.197301742515235 22.426053332134828 1 1 -1
133 17 1 5.114898073998305 11.499513463039895 22.681893700440874 1 1 -1
132 17 1 5.936422947231351 12.06965083195885 22.844556030895138 1 1 -1
135 17 1 3.9867154704293353 10.25603027764112 22.406995596319224 1 1 -1
134 17 1 4.917481398391433 10.550474448672794 22.316437058629546 1 1 -1
131 17 1 5.7537174349841225 12.608624872242126 22.106560347290646 1 1 -1
463 58 2 1.4328721593473042 12.955508706223606 27.39067462996551 0 1 0
462 58 2 1.1910908292470668 13.70888608347538 26.78616587351842 0 1 0
457 58 2 1.4825518215209341 14.90052976614066 26.023615036095492 0 1 0
41 6 1 29.67116297055627 20.088198159402545 19.072577937337318 0 -1 -1
244 31 2 0.9149911308291634 25.069718674166406 25.78601846197591 -1 -1 0
243 31 2 1.2780449000292378 24.205799532511435 25.66486454487283 -1 -1 0
242 31 2 2.141714802002698 24.322717641830746 25.39301464259777 -1 -1 0
241 31 2 2.1374058153632665 23.455356887419597 24.989228523707254 -1 -1 0
123 16 1 30.778837248382853 26.800569671864505 24.06476617376576 -1 0 -1
246 31 2 0.4844419037255817 25.77141286490458 24.958352920044156 -1 -1 0
121 16 1 30.489420219300875 28.25654617557565 24.610998837390905 -1 0 -1
71 9 1 7.8873472657867225 3.254173433892917 26.14876239592213 0 0 -1
300 38 2 23.647945717044404 31.54048701366427 24.903323192404606 0 0 1
72 9 1 8.479655084541132 3.867217875271432 26.632400460762796 0 0 -1
299 38 2 23.016102992175586 30.937292973793177 24.648921438707415 0 0 1
360 45 2 28.954140361889298 5.792574586156914 23.658657292052773 0 0 0
357 45 2 29.409768795158445 5.299867198029033 22.84259999070619 0 0 0
356 45 2 29.815072072340804 6.1863531942631225 22.73509026704202 0 0 0
355 45 2 30.740603634993352 6.391791282525553 22.62476088755745 0 0 0
464 58 2 1.6027653522955303 12.392238291809456 26.650227883743398 0 1 0
461 58 2 2.058593508990925 14.018854571901079 26.869309519928795 0 1 0
460 58 2 1.513985234391264 14.73362591158466 27.285689449411315 0 1 0
459 58 2 1.4935215073993962 15.68816418668272 26.99485902529206 0 1 0
458 58 2 2.1607123694900703 15.617296810098019 26.336378160152123 0 1 0
245 31 2 1.1925093587635278 25.95086061266192 25.700951830319717 -1 -1 0
248 31 2 31.393845243690627 26.74139781287151 25.707746790387105 -2 -1 0
247 31 2 31.645903564569323 25.84057059185641 25.595093619360338 -2 -1 0
301 38 2 24.215802876803775 31.597435141398826 25.617000619165264 0 0 1
302 38 2 23.80586769408859 30.691613266689806 25.761756259041846 0 0 1
13 2 1 6.081237350075544 2.8708033436491114 25.71253721748525 0 0 -1
66 9 1 7.061106359943587 1.3264093506877972 24.79579232153164 0 0 -1
67 9 1 7.570185862964206 2.257239423998719 24.520502626866975 0 0 -1
70 9 1 7.147675908779584 3.8524035942734773 25.798129409340433 0 0 -1
69 9 1 7.195017181998496 3.43350172930989 25.028182069728086 0 0 -1
68 9 1 6.781256191302699 2.5693748769363034 24.916665233830795 0 0 -1
16 2 1 5.642266821823262 1.6099327486418915 25.06775879276657 0 0 -1
14 2 1 5.536171139138012 2.0419269617382962 26.076780918181427 0 0 -1
65 9 1 6.664286005338299 1.8444714954141854 24.0280070805256 0 0 -1
359 45 2 28.557320203848057 4.9871315123993725 23.99359772350031 0 0 0
358 45 2 28.515111739339297 5.013798963360019 22.881257379092684 0 0 0
430 54 2 16.335579535054226 23.349783813445384 26.58689672069824 0 0 1
431 54 2 15.560056482554222 23.85438169960273 26.887474019735 0 0 1
303 38 2 23.354929159140593 31.30064202376502 26.3220650788008 0 0 1
436 55 2 4.803051857386286 1.6008784766327389 27.844894826202488 0 1 0
435 55 2 5.5125481963367795 1.7987591286458782 27.186533965857922 0 1 0
438 55 2 5.6496831319680965 0.7627399811265507 27.859582629841317 0 1 0
437 55 2 4.826816536806174 0.7704729205114779 28.385909664929954 0 1 0
304 38 2 22.79382419887879 31.387906983637546 25.52157403817074 0 0 1
15 2 1 5.256419866332798 1.0981567298882813 25.779029563153628 0 0 -1
10 2 1 6.72442535773685 2.5779507228084966 26.747206547304447 0 0 -1
9 2 1 6.448884388928701 1.5820988305063814 26.71616597550751 0 0 -1
12 2 1 6.131782645343465 3.796881334099928 25.863739582546334 0 0 -1
11 2 1 6.024133339347213 3.263964412079271 26.65535996944485 0 0 -1
344 43 2 4.749089183238511 3.0507246138685153 29.12383915346922 1 1 0
338 43 2 4.4248060131614135 3.628149126316135 26.251429298935548 1 1 0
339 43 2 4.4959187447488045 2.864523750035337 27.042772834918935 1 1 0
340 43 2 5.294335886816121 3.016619652196761 27.504557823193963 1 1 0
337 43 2 4.515238934492616 4.550842838075255 26.841446501130047 1 1 0
343 43 2 4.561039865108127 3.3722138395373245 28.244954050897892 1 1 0
405 51 2 30.62298652807964 9.32990776577888 28.505244045057243 0 1 0
402 51 2 30.092865739442285 8.375017629321903 28.774319965440757 0 1 0
403 51 2 30.961089252206595 8.228394261890662 28.360458878583756 0 1 0
429 54 2 16.587806492616906 23.919375603553636 27.378736764138207 0 0 1
427 54 2 17.240844989674567 23.210842941488295 26.94462768280924 0 0 1
426 54 2 17.078080243307248 23.35025827196746 25.972784429167383 0 0 1
428 54 2 16.50155519630644 22.99875537511346 27.526224743354113 0 0 1
425 54 2 17.624048637676506 22.505979186406094 26.17952547629761 0 0 1
432 54 2 16.142011320375655 24.332645327404574 26.097725733943555 0 0 1
434 55 2 5.334723762527274 0.9364507056585134 26.911193325986602 0 1 0
439 55 2 6.355555384925652 0.3291870942900974 27.409853962920298 0 1 0
440 55 2 7.1560210868534755 0.08324925879608155 26.90931051220705 0 1 0
433 55 2 4.478170052271845 1.4124513091381312 26.85055173225761 0 1 0
314 40 2 5.990042124460989 1.54836579142149 28.71502379745243 1 1 0
342 43 2 4.278063767178529 4.123605522618745 27.71347663622781 1 1 0
341 43 2 5.092852598982747 3.9695955576190194 27.294191914067042 1 1 0