ITEM: TIMESTEP
0
ITEM: NUMBER OF ATOMS
480
ITEM: BOX BOUNDS pp pp pp
0.0000000000000000e+00 3.2000000000000000e+01
0.0000000000000000e+00 3.2000000000000000e+01
0.0000000000000000e+00 3.2000000000000000e+01
ITEM: ATOMS id type xu yu zu
1 1 5.30477 -4.67809 3.89366
2 1 4.78457 -3.87529 4.12029
3 1 4.21261 -3.79664 4.87156
4 1 3.2862 -3.94267 4.62383
5 1 3.7875 -3.4804 3.91243
6 1 4.1727 -2.57816 3.96561
7 1 4.70802 -2.74592 4.79976
8 1 5.6718 -2.78533 4.87227
9 1 -5.51739 4.19927 13.9714
10 1 -6.39707 4.03265 13.6112
11 1 -7.32585 4.21152 13.5345
12 1 -7.07894 4.56183 12.6936
13 1 -7.34842 4.87256 11.7554
14 1 -7.91124 4.04495 11.8279
15 1 -6.9442 3.86553 11.6157
16 1 -7.35603 3.01296 11.2084
17 1 16.6333 14.379 1.44641
18 1 17.3229 13.7007 1.31576
19 1 17.8421 14.3147 0.872882
20 1 18.5699 13.6567 0.826371
21 1 19.3825 13.9126 0.392862
22 1 19.6134 13.3894 -0.337373
23 1 18.6725 13.3805 -0.412223
24 1 18.8106 13.368 -1.44251
25 1 29.681 -1.17656 0.304831
26 1 29.4873 -0.369269 0.864525
27 1 29.5425 0.547961 0.861913
28 1 29.9308 0.31111 -0.0393051
29 1 30.3981 1.02311 0.375317
30 1 30.0842 1.9499 0.218993
31 1 29.2872 1.43453 0.0115013
32 1 28.7038 2.0369 -0.434157
33 1 41.0881 5.49456 14.4206
34 1 41.6211 6.24291 14.5105
35 1 41.6596 7.19094 14.2637
36 1 41.052 7.40606 14.862
37 1 41.8115 6.98546 15.255
38 1 41.9668 7.5702 16.1018
39 1 41.804 6.84944 16.8231
40 1 41.548 6.124 16.1481
41 1 27.477 1.8637 3.50424
42 1 27.3952 2.786 3.31164
43 1 26.9004 2.38982 4.07202
44 1 26.2453 2.61128 4.81786
45 1 26.8562 3.34762 4.66987
46 1 26.7017 3.85883 5.44354
47 1 27.4617 4.4882 5.49715
48 1 27.7526 3.64514 5.11516
49 1 -0.0750248 1.38872 7.60104
50 1 0.180772 2.08242 8.44925
51 1 0.607499 1.22066 8.42268
52 1 1.04339 0.973557 7.63559
53 1 0.871639 0.181451 6.93835
54 1 1.45438 0.783116 6.56254
55 1 2.00817 0.65048 7.27415
56 1 1.8034 -0.184153 6.9466
57 1 -1.02958 27.0409 11.9649
58 1 -0.091095 26.6989 11.9514
59 1 -0.655314 26.2757 11.3507
60 1 -0.817052 25.7052 12.1101
61 1 0.181437 25.6785 12.1225
62 1 0.766356 25.5631 13.0065
63 1 -0.203014 25.5494 13.0946
64 1 -0.259971 26.4308 13.463
65 1 9.9536 1.10313 12.2497
66 1 9.90763 0.807643 11.3638
67 1 10.1648 1.44233 10.7672
68 1 10.0723 1.69585 9.77269
69 1 9.6118 0.823817 9.52385
70 1 9.04289 0.532742 10.2546
71 1 8.72218 0.329549 9.39088
72 1 8.27699 0.920683 8.89562
73 1 32.9266 23.0448 -6.04325
74 1 32.5099 23.206 -7.02134
75 1 31.6952 22.8956 -6.51202
76 1 31.818 23.5236 -5.75746
77 1 31.5973 24.3864 -5.47272
78 1 32.5904 24.532 -5.50967
79 1 33.4741 24.5035 -5.9234
80 1 34.295 24.0404 -5.87173
81 1 25.9665 5.28497 10.8754
82 1 26.7084 5.54668 11.3801
83 1 27.1634 5.3159 12.2117
84 1 27.4454 4.35482 12.3319
85 1 27.6344 3.31529 12.4089
86 1 28.2645 3.61099 13.068
87 1 28.5258 2.71846 13.278
88 1 28.4674 2.24757 12.45
89 1 20.1571 5.64341 -2.11796
90 1 21.2195 5.54085 -2.13111
91 1 21.7822 5.42474 -1.29565
92 1 22.0336 5.00597 -0.390565
93 1 21.4326 4.58573 0.241523
94 1 21.5491 4.00077 -0.535675
95 1 22.4134 3.86169 -0.56382
96 1 22.0009 3.20645 -1.13911
97 1 -5.33981 7.17987 7.16157
98 1 -5.17293 8.10337 7.64753
99 1 -4.9679 8.9231 7.07677
100 1 -5.06001 8.7088 6.14754
101 1 -5.88852 9.23798 6.36683
102 1 -6.05262 8.97907 7.28561
103 1 -6.29014 9.87846 7.7538
104 1 -6.99889 9.75686 7.18264
105 1 -6.8513 13.5443 16.6887
106 1 -6.83649 13.0495 15.8755
107 1 -6.03684 13.4519 16.0031
108 1 -5.98264 12.6457 16.441
109 1 -5.47883 11.8983 16.7007
110 1 -5.76286 11.7793 15.7894
111 1 -6.54496 11.2704 15.9842
112 1 -6.18235 10.617 15.323
113 1 30.9337 -2.43731 -7.95074
114 1 30.7317 -1.45606 -8.00228
115 1 31.2445 -1.49057 -7.12799
116 1 30.6096 -0.746152 -6.79978
117 1 31.4992 -0.39945 -6.83525
118 1 30.8484 0.301197 -6.50416
119 1 31.0922 0.150762 -5.65645
120 1 31.8442 -0.466343 -5.27802
121 1 -8.33963 27.025 0.826
122 1 -8.11053 26.021 1.18205
123 1 -7.90178 25.0943 1.42736
124 1 -8.64123 24.5627 1.44638
125 1 -8.51201 25.1892 2.23869
126 1 -7.92153 24.9446 2.92698
127 1 -8.83173 24.7191 3.02671
128 1 -8.49461 24.0285 2.39449
129 1 18.6809 24.6464 10.1807
130 1 17.7159 24.8186 10.267
131 1 17.1932 24.8765 9.34945
132 1 17.9609 24.2876 9.17891
133 1 18.0435 25.1854 8.82151
134 1 18.5483 24.3795 8.29159
135 1 18.9944 24.1318 7.45576
136 1 19.622 23.6138 7.97957
137 1 38.6479 5.18644 -0.205043
138 1 38.0037 4.48232 -0.146346
139 1 37.1864 4.62132 -0.556837
140 1 37.4706 3.69507 -0.916402
141 1 37.7679 2.80441 -0.729796
142 1 38.3014 3.28295 -0.187361
143 1 37.4962 3.48697 0.427422
144 1 37.926 3.00412 1.15872
145 1 -5.33107 19.4382 -10.1709
146 1 -4.87659 19.1581 -9.39599
147 1 -4.80265 18.307 -8.94025
148 1 -5.23482 18.1574 -7.99881
149 1 -4.81115 18.3553 -6.98336
150 1 -5.75246 18.3595 -7.11418
151 1 -5.66733 18.3384 -6.15883
152 1 -4.89188 18.2336 -5.54858
153 1 -1.4556 32.4101 -4.85092
154 1 -1.87991 32.6183 -5.65362
155 1 -1.85826 31.6457 -5.36464
156 1 -1.84216 30.6515 -5.53477
157 1 -2.364 31.18 -6.16272
158 1 -2.12757 31.932 -6.77529
159 1 -3.06003 32.1629 -7.18035
160 1 -3.72814 31.5358 -6.99246
161 1 -0.745564 41.6509 -1.89178
162 1 -0.1389 40.9473 -1.98816
163 1 -0.682787 40.5857 -1.2146
164 1 -1.35726 39.8428 -1.23627
165 1 -0.469213 39.4318 -1.34038
166 1 -0.0617952 38.5963 -1.0488
167 1 0.876082 38.286 -1.13152
168 1 0.885479 37.6705 -1.88018
169 1 12.7268 11.9711 6.72787
170 1 13.2958 11.4361 6.20346
171 1 13.9946 11.4992 6.93352
172 1 13.8572 10.7656 7.5308
173 1 13.2211 11.452 7.68654
174 1 12.5959 11.8773 8.42616
175 1 11.7068 12.1149 8.82233
176 1 11.1379 12.456 8.18575
177 1 37.829 28.0393 21.0953
178 1 37.2774 27.8493 20.1992
179 1 37.1436 28.081 19.2163
180 1 36.2154 27.907 19.4863
181 1 36.2627 27.1169 18.8606
182 1 36.8278 26.4825 18.4769
183 1 36.3755 25.7682 19.0047
184 1 36.8868 25.258 19.5277
185 1 23.925 1.55219 8.7537
186 1 23.5422 2.41532 9.03573
187 1 23.2849 3.15035 8.39326
188 1 22.4289 3.34249 8.61621
189 1 22.5935 3.2248 7.66733
190 1 23.3002 3.64804 7.09347
191 1 24.2586 3.86507 6.94859
192 1 23.677 4.3745 6.25558
193 1 8.88445 9.08307 13.3066
194 1 9.4578 8.3772 13.568
195 1 8.66297 7.94195 13.456
196 1 7.9898 8.56945 13.7554
197 1 7.25744 8.15234 13.313
198 1 7.57312 7.7493 12.5039
199 1 7.84246 6.84679 12.2952
200 1 8.05643 5.94264 12.55
201 1 6.11855 31.0922 1.89434
202 1 6.57926 30.3372 2.25412
203 1 7.06484 29.7272 2.84711
204 1 7.32724 29.4657 1.9732
205 1 8.22852 29.1127 1.97069
206 1 8.18543 30.1524 2.00071
207 1 7.9953 30.8856 2.6364
208 1 8.84339 31.2545 2.8315
209 1 -17.3787 10.7567 6.20135
210 1 -16.5982 11.2791 6.08147
211 1 -16.6177 10.6301 5.35278
212 1 -17.4813 10.4338 4.9784
213 1 -17.593 10.2515 4.07232
214 1 -17.5813 11.2475 3.74164
215 1 -17.4652 11.8706 4.44077
216 1 -17.6346 12.5008 3.7349
217 1 20.6989 11.9487 6.83932
218 1 20.0822 12.7754 6.85621
219 1 19.1755 12.9893 7.38884
220 1 18.8046 13.8415 7.08124
221 1 19.4853 14.3567 6.58702
222 1 18.6616 14.1884 6.08423
223 1 18.4985 14.3169 5.11536
224 1 18.4455 14.4752 4.16666
225 1 11.6311 18.7515 9.31088
226 1 10.8661 18.1886 8.90153
227 1 11.1753 17.6359 8.09774
228 1 11.4133 16.8943 8.65778
229 1 10.8169 16.3105 9.10181
230 1 11.3287 15.7072 9.70087
231 1 11.1422 14.7865 9.57429
232 1 10.4567 14.4691 10.2365
233 1 16.9289 30.4548 10.3219
234 1 16.3854 29.6599 10.4853
235 1 16.0978 28.812 10.8713
236 1 15.1029 28.5219 10.6231
237 1 15.0724 28.8814 9.7265
238 1 14.349 28.2421 9.65479
239 1 13.4099 28.4691 9.44335
240 1 14.1543 29.0517 9.02971
241 2 -8.89123 3.71684 27.7093
242 2 -9.53421 3.01243 27.4936
243 2 -9.70789 2.78296 26.651
244 2 -10.4101 3.12993 26.164
245 2 -10.8458 3.85527 25.8223
246 2 -11.2985 4.61109 25.659
247 2 -12.2256 4.49427 25.3708
248 2 -12.1497 3.97226 26.1753
249 2 31.1486 -5.49409 17.1345
250 2 30.7925 -6.16203 17.5918
251 2 29.8277 -6.32764 17.6988
252 2 30.3343 -6.03122 18.4978
253 2 30.2032 -5.09374 18.45
254 2 30.2332 -4.07047 18.5854
255 2 29.4482 -3.43517 18.8923
256 2 29.9761 -2.96752 19.5555
257 2 6.35228 -1.09254 29.8407
258 2 6.91365 -1.77353 29.4847
259 2 7.7781 -2.01969 29.8686
260 2 8.26223 -2.86915 30.1158
261 2 8.46447 -3.82592 30.0156
262 2 9.32516 -3.27565 30.1064
263 2 9.7567 -3.79709 30.7467
264 2 10.1985 -4.58319 30.4066
265 2 11.2845 -2.41715 19.79
266 2 12.3476 -2.52031 19.7992
267 2 12.7461 -3.31429 20.086
268 2 13.1531 -3.95251 19.6124
269 2 12.3961 -3.7819 19.0358
270 2 12.0055 -4.57119 18.7223
271 2 11.4116 -4.24986 17.9724
272 2 10.8344 -3.6558 17.5108
273 2 32.1048 -22.427 14.3275
274 2 32.2483 -23.3216 14.6899
275 2 32.7783 -23.6036 15.4949
276 2 33.0134 -24.5957 15.7025
277 2 32.6288 -24.1437 16.4512
278 2 32.0975 -24.9326 16.766
279 2 31.9067 -24.4316 17.5082
280 2 31.4634 -23.6 17.4277
281 2 29.6544 2.72822 45.358
282 2 30.4427 2.38152 45.7509
283 2 31.149 2.88129 45.372
284 2 31.4069 3.64964 45.8102
285 2 30.8372 4.47464 45.9605
286 2 31.2496 4.91093 46.7274
287 2 31.8723 4.63018 46.0638
288 2 32.2067 5.44038 46.5415
289 2 -1.05015 22.3907 4.41504
290 2 -1.75513 22.354 3.82811
291 2 -1.90322 23.0261 4.46047
292 2 -2.72867 23.6121 4.52133
293 2 -3.26097 22.8662 4.41229
294 2 -3.13419 22.0349 3.8749
295 2 -3.75307 22.6184 3.57315
296 2 -4.02851 21.6794 3.36459
297 2 15.1119 10.529 26.2531
298 2 15.2172 11.0721 27.1678
299 2 15.5548 11.4348 28.1017
300 2 15.5366 12.2541 28.5949
301 2 15.7768 13.1538 28.845
302 2 16.0663 13.9228 29.3753
303 2 15.1979 13.7243 29.8286
304 2 14.9795 13.0893 30.5924
305 2 1.16129 17.1305 10.8785
306 2 1.7933 17.8077 11.1525
307 2 2.06178 18.668 11.6679
308 2 2.43695 19.4772 11.248
309 2 3.37278 19.0176 11.2636
310 2 3.84221 18.274 10.979
311 2 3.71784 17.3362 10.9145
312 2 2.87444 17.33 10.3373
313 2 14.658 17.365 20.7508
314 2 14.6002 17.8405 21.6106
315 2 13.9218 18.2855 22.2244
316 2 14.8371 18.6931 22.1302
317 2 15.2851 18.6655 21.3078
318 2 16.254 18.592 21.7847
319 2 15.9202 17.8704 22.3037
320 2 16.6765 17.5857 21.7629
321 2 14.8228 19.4155 32.2041
322 2 14.4114 18.7232 31.7115
323 2 14.3373 19.659 31.215
324 2 14.978 20.2402 31.5105
325 2 14.7174 20.5264 30.691
326 2 13.7619 20.4209 31.0411
327 2 13.9449 20.9275 30.1582
328 2 14.134 21.5676 29.4918
329 2 34.3829 14.5858 23.4621
330 2 34.4942 15.0068 24.4588
331 2 33.8444 14.6878 25.1765
332 2 33.1275 14.2763 24.7357
333 2 33.9367 13.6818 24.6591
334 2 34.7175 13.4737 25.2354
335 2 34.4634 12.6717 24.7832
336 2 34.5431 12.2198 25.5783
337 2 18.6091 19.7905 22.8006
338 2 19.1723 19.4695 23.5219
339 2 18.8172 20.2122 24.1915
340 2 18.0342 19.6184 24.5531
341 2 17.6642 20.3414 24.9747
342 2 18.4788 20.9171 24.9675
343 2 18.0278 21.1576 24.1058
344 2 17.1062 21.0348 24.2403
345 2 7.45175 18.0635 30.7851
346 2 7.72737 18.1171 31.7235
347 2 7.10122 17.5362 32.1271
348 2 6.30363 17.3597 31.667
349 2 5.79205 16.5536 31.5262
350 2 4.82576 16.6022 31.7651
351 2 5.29544 17.4575 31.7777
352 2 4.96892 17.7699 32.7244
353 2 5.21283 5.97086 22.6696
354 2 5.23883 6.895 22.658
355 2 4.38616 6.54903 22.2103
356 2 4.01272 5.71365 21.7663
357 2 3.42048 5.84016 22.5509
358 2 2.72822 6.5813 22.8338
359 2 2.48992 5.91317 22.1923
360 2 1.79203 6.48461 22.4848
361 2 30.1348 3.13107 28.7377
362 2 30.0492 2.23663 29.1141
363 2 30.0358 1.36074 28.5263
364 2 29.7945 0.824369 27.6468
365 2 29.2187 0.125545 27.2253
366 2 28.574 0.0511981 28.0488
367 2 27.6819 -0.0364417 28.4554
368 2 27.7726 -0.503811 27.6506
369 2 34.6073 13.2913 18.3441
370 2 34.6344 14.2963 18.5112
371 2 34.4513 15.0813 17.987
372 2 34.6423 14.2878 17.56
373 2 35.3954 15.0096 17.767
374 2 35.648 15.0178 16.8341
375 2 35.9079 14.0539 17.2255
376 2 35.3875 13.2853 17.5714
377 2 11.9064 2.95685 23.9162
378 2 12.5802 2.2245 23.7325
379 2 13.2487 2.90309 23.9148
380 2 14.1707 3.01439 23.7311
381 2 14.8342 3.3774 23.0917
382 2 14.7096 4.07904 22.3818
383 2 15.6093 4.48449 22.4675
384 2 16.5 4.34272 22.0882
385 2 10.1145 16.3189 25.8308
386 2 10.8784 15.9016 25.3716
387 2 10.8423 15.0654 25.8701
388 2 11.4326 14.8242 25.2442
389 2 12.0769 15.4275 24.9477
390 2 11.3259 15.3399 24.3231
391 2 12.131 15.6888 24.0847
392 2 12.7269 16.353 24.2656
393 2 16.2513 30.1958 36.7937
394 2 16.4789 29.5431 37.5394
395 2 16.5045 29.1234 38.4128
396 2 16.4386 30.0614 38.4786
397 2 16.4327 31.0456 38.3538
398 2 15.8276 30.7114 37.7426
399 2 16.2998 31.5167 37.4696
400 2 16.4469 31.4287 36.5041
401 2 7.48986 32.0027 30.5822
402 2 7.805 32.4833 29.6956
403 2 7.69582 31.7183 29.1649
404 2 7.46629 31.6114 28.2697
405 2 7.58704 30.5986 27.8744
406 2 8.42885 30.7491 27.4533
407 2 9.26073 31.376 27.459
408 2 9.64148 32.0604 26.9509
409 2 33.9013 17.0842 28.5566
410 2 33.8187 17.2976 29.4752
411 2 34.4709 16.5775 29.7272
412 2 33.8917 15.922 29.1691
413 2 34.1448 15.043 29.0803
414 2 34.2521 14.1759 29.5627
415 2 34.6348 13.6159 28.8404
416 2 34.0778 13.6448 28.0355
417 2 34.1104 16.16 17.4994
418 2 34.8752 16.0838 17.9908
419 2 35.2439 15.7771 18.8133
420 2 35.6703 16.6943 19.1121
421 2 35.5203 16.8976 18.1931
422 2 36.3835 17.3996 18.3983
423 2 36.8531 18.2009 18.726
424 2 35.945 18.2958 19.068
425 2 17.8178 19.7772 36.2412
426 2 17.036 19.6275 36.7755
427 2 17.7088 20.146 37.345
428 2 18.0926 19.1941 37.1287
429 2 18.5852 18.8279 36.5008
430 2 19.0027 18.5371 37.403
431 2 19.5668 17.8584 37.2558
432 2 19.2924 17.685 36.3679
433 2 -2.74072 26.0125 6.14789
434 2 -2.97413 26.8164 6.62814
435 2 -2.13482 26.3853 6.81835
436 2 -1.51913 26.821 7.55101
437 2 -1.17605 27.3055 8.35389
438 2 -1.73817 28.0201 7.92585
439 2 -0.826509 28.2943 8.18755
440 2 -0.737987 28.2106 9.14123
441 2 0.0480221 29.3729 37.1463
442 2 -0.128324 30.3289 37.097
443 2 0.743886 30.7487 37.1135
444 2 1.38235 30.2425 36.4079
445 2 1.42947 29.2032 36.7015
446 2 1.33696 28.3042 37.0472
447 2 0.700026 28.6659 37.6811
448 2 1.02896 29.652 37.5378
449 2 -6.35595 37.2372 0.0371238
450 2 -5.94606 37.7442 -0.696219
451 2 -5.01829 37.8755 -0.386613
452 2 -4.41642 37.2213 0.00671191
453 2 -4.10287 37.841 -0.736762
454 2 -4.18166 37.267 -1.42131
455 2 -4.03999 36.4339 -0.784816
456 2 -3.44134 36.7665 -0.128289
457 2 0.0586174 34.986 23.0977
458 2 0.809329 35.0814 22.552
459 2 1.33518 34.2933 22.8566
460 2 1.24039 34.9567 23.5116
461 2 1.72471 34.2205 23.8531
462 2 2.69592 34.1821 23.5444
463 2 3.69789 34.5669 23.5809
464 2 3.52595 34.0866 24.431
465 2 34.2411 33.0357 11.0616
466 2 34.7144 33.1951 10.2348
467 2 35.3137 32.4698 9.88389
468 2 34.9201 31.6769 9.49581
469 2 33.9988 31.6788 9.28645
470 2 34.0417 30.753 9.13347
471 2 33.7866 30.9982 10.0112
472 2 32.9387 30.4451 9.86477
473 2 18.8099 33.2374 5.53658
474 2 18.6982 34.1255 6.21257
475 2 18.0959 33.6697 6.95987
476 2 17.7822 32.9196 7.50103
477 2 17.0844 33.3938 6.99513
478 2 16.6311 33.0713 7.73077
479 2 16.5777 33.7295 8.47549
480 2 17.5612 33.66 8.3116
ITEM: TIMESTEP
1000
ITEM: NUMBER OF ATOMS
480
ITEM: BOX BOUNDS pp pp pp
0.0000000000000000e+00 3.2000000000000000e+01
0.0000000000000000e+00 3.2000000000000000e+01
0.0000000000000000e+00 3.2000000000000000e+01
ITEM: ATOMS id type xu yu zu
1 1 3.05476 -3.91797 2.28573
2 1 3.75762 -4.51967 2.78585
3 1 4.3939 -3.95786 3.30476
4 1 4.52476 -3.01472 3.10434
5 1 4.72341 -2.75916 2.23715
6 1 4.64296 -1.97886 1.67445
7 1 5.17437 -1.48257 1.10578
8 1 5.62393 -2.22497 1.38907
9 1 -6.08146 3.94061 14.759
10 1 -6.13208 4.86554 14.5164
11 1 -7.04815 4.53364 14.3616
12 1 -7.35597 5.41052 14.6488
13 1 -7.94449 4.86355 14.1154
14 1 -8.32647 4.24112 13.3939
15 1 -9.10546 4.85494 13.1781
16 1 -9.40994 4.08831 13.841
17 1 20.1572 14.2109 -0.882623
18 1 19.2395 14.2634 -1.00246
19 1 19.7491 13.5647 -1.54977
20 1 20.076 13.1794 -2.50943
21 1 20.7482 13.8107 -2.57748
22 1 21.3937 14.654 -2.71269
23 1 20.4788 15.0106 -2.45727
24 1 19.5655 14.5837 -2.18863
25 1 31.4297 2.37643 3.53472
26 1 31.1409 1.44522 3.38993
27 1 30.828 1.41791 2.54336
28 1 31.7742 1.80462 2.70404
29 1 31.5941 2.59049 2.2372
30 1 31.9236 3.37088 1.83569
31 1 31.9069 4.13741 1.32487
32 1 32.6416 3.55384 0.916115
33 1 40.6005 6.74883 11.3702
34 1 39.7203 6.83864 11.8875
35 1 40.1685 7.78767 11.9103
36 1 40.1446 7.65296 12.8476
37 1 40.3699 8.0912 13.6585
38 1 39.4763 8.26133 14.1565
39 1 39.4498 7.54705 13.458
40 1 38.7928 6.8875 13.299
41 1 28.5064 3.58856 2.98557
42 1 27.7013 3.15847 3.43091
43 1 27.1775 2.61756 4.02764
44 1 26.5756 2.74593 3.35732
45 1 26.0602 2.89038 4.17227
46 1 25.9896 2.03514 4.57441
47 1 25.8352 1.95001 5.52279
48 1 26.489 2.51978 5.77867
49 1 -0.347915 0.105586 6.13167
50 1 -0.524061 -0.734929 6.7119
51 1 -1.12745 -0.54737 7.46461
52 1 -0.993664 -1.42977 7.45606
53 1 -0.0716735 -1.22779 7.5352
54 1 -0.396431 -0.600762 8.31227
55 1 0.130018 -1.2823 8.53493
56 1 0.347588 -2.18626 8.52582
57 1 -0.450574 27.5148 13.8468
58 1 0.00291492 28.3323 13.5429
59 1 -0.0668613 29.0597 14.176
60 1 0.204288 28.1933 14.5404
61 1 0.667665 27.7153 13.8503
62 1 1.19266 27.0066 13.203
63 1 1.32706 28.0257 13.1121
64 1 0.54841 27.9811 12.5717
65 1 8.56747 0.481911 10.5152
66 1 9.27148 0.502171 11.2323
67 1 9.639 1.34828 11.3933
68 1 9.28489 1.89222 12.1848
69 1 8.49143 1.29701 11.8921
70 1 8.09676 1.30848 11.0025
71 1 8.04686 1.21141 10.0576
72 1 7.12302 1.39409 10.1718
73 1 29.8504 23.6698 -6.13928
74 1 30.6208 23.0372 -5.88314
75 1 30.074 22.1634 -5.41523
76 1 30.7248 21.6206 -5.73756
77 1 31.2256 22.0534 -4.96061
78 1 31.9342 22.6619 -5.17935
79 1 31.6932 23.5433 -5.40844
80 1 31.5591 23.6273 -4.37497
81 1 27.4785 7.40706 11.1118
82 1 27.71 6.52453 11.4625
83 1 27.668 5.67964 11.4678
84 1 27.317 5.74481 12.3003
85 1 27.4888 4.87628 12.7146
86 1 27.2019 4.28016 11.9156
87 1 27.6041 4.02197 11.035
88 1 27.3779 3.04978 11.269
89 1 21.9638 5.58 -3.84078
90 1 21.6123 4.96598 -3.2082
91 1 21.3113 4.09424 -3.21308
92 1 21.0884 3.65642 -2.43776
93 1 20.4825 4.40143 -2.31829
94 1 21.1006 5.13798 -1.85652
95 1 21.9204 4.65625 -1.62594
96 1 22.7826 5.09917 -1.81968
97 1 -8.23696 9.75927 6.43382
98 1 -8.82677 10.4454 6.64506
99 1 -8.39457 10.6159 7.5197
100 1 -7.77779 11.2575 7.29201
101 1 -6.91519 11.3506 6.88381
102 1 -6.58748 10.6612 7.46673
103 1 -6.84324 11.2534 8.19558
104 1 -7.54997 11.9018 8.15967
105 1 -8.67976 9.49327 15.4849
106 1 -9.16822 10.3708 15.7008
107 1 -8.30167 10.7478 15.5635
108 1 -7.66735 11.043 16.2078
109 1 -6.97824 10.5464 15.8127
110 1 -7.42968 10.8443 14.9078
111 1 -7.96329 10.138 14.5254
112 1 -8.66685 10.7615 14.4487
113 1 31.3593 -1.00473 -8.11089
114 1 31.5833 -0.265574 -7.56872
115 1 31.8647 0.367283 -6.92108
116 1 31.9287 0.123041 -5.97567
117 1 32.3142 -0.731062 -6.24544
118 1 33.2632 -0.472614 -6.32516
119 1 33.8466 0.103903 -6.77926
120 1 33.2977 0.523581 -7.44602
121 1 -12.4027 25.579 2.10317
122 1 -11.5933 25.23 2.04902
123 1 -11.2456 24.7338 1.21115
124 1 -10.4148 25.1716 1.11269
125 1 -10.0565 25.7979 1.75701
126 1 -9.35422 26.1353 2.45531
127 1 -9.74678 26.1563 3.40923
128 1 -9.82506 25.4061 4.05719
129 1 18.4321 23.7337 6.73704
130 1 18.516 23.3837 7.58978
131 1 17.9316 22.7956 7.07379
132 1 17.2797 23.525 6.85471
133 1 16.8325 22.6739 6.72558
134 1 16.5093 23.4946 6.25477
135 1 15.8281 22.7518 6.33856
136 1 15.1028 22.1756 6.43421
137 1 37.783 4.96818 -1.49759
138 1 37.9365 5.56424 -2.21681
139 1 38.8202 5.80379 -2.42708
140 1 39.3201 5.25447 -3.09272
141 1 38.8487 4.57568 -2.63096
142 1 38.4771 3.85476 -2.1508
143 1 39.5228 3.49257 -2.2029
144 1 39.2877 3.597 -1.27752
145 1 -3.06483 20.5993 -9.30509
146 1 -2.99761 20.4487 -8.34968
147 1 -2.50693 20.7466 -7.66078
148 1 -2.38395 21.6946 -7.96346
149 1 -2.20535 22.0385 -7.07529
150 1 -2.93792 21.4179 -6.83707
151 1 -3.21591 22.1248 -7.38712
152 1 -4.25153 21.9228 -7.54992
153 1 -1.45938 32.3175 -6.94512
154 1 -0.881522 31.6357 -6.66149
155 1 -1.79152 31.4904 -6.66046
156 1 -2.73619 31.6387 -6.91438
157 1 -2.375 32.3635 -7.44569
158 1 -1.84427 32.9246 -8.04453
159 1 -2.24892 33.6561 -7.48836
160 1 -3.0935 33.0774 -7.56693
161 1 -1.47358 41.1746 -0.491137
162 1 -0.716674 41.1989 -1.09695
163 1 0.0994374 41.5247 -1.31298
164 1 0.293647 41.4066 -0.377656
165 1 0.410124 40.4333 -0.64465
166 1 0.148905 39.7078 -1.28775
167 1 0.807812 39.081 -0.730987
168 1 1.77886 39.0885 -0.906927
169 1 15.9583 11.8274 9.59105
170 1 15.2454 11.5179 10.0501
171 1 15.0885 11.3017 9.16682
172 1 14.1657 11.0183 8.95597
173 1 13.2808 11.034 8.56004
174 1 13.1415 11.5426 9.34903
175 1 13.2879 12.4036 8.89955
176 1 14.1639 12.0719 8.59026
177 1 35.039 26.9395 18.8973
178 1 35.1903 27.7714 19.3914
179 1 35.0926 28.1097 20.3389
180 1 35.9249 28.5901 19.9181
181 1 36.1451 29.2319 20.6705
182 1 36.9375 29.8431 20.6396
183 1 37.1549 28.9585 20.9984
184 1 37.1739 29.5213 21.8106
185 1 26.582 4.07352 5.41075
186 1 25.7101 3.77711 5.0439
187 1 25.747 3.40623 5.90935
188 1 24.7737 3.21299 5.85775
189 1 24.1732 3.80414 5.3913
190 1 24.7064 4.28873 6.0552
191 1 25.5214 4.69242 5.90686
192 1 25.3223 5.50229 5.40331
193 1 5.67479 7.20685 15.2044
194 1 5.11897 7.3062 14.3834
195 1 4.52837 6.63405 13.9201
196 1 4.7123 7.42911 13.3949
197 1 5.58483 7.15813 13.5326
198 1 5.6081 6.93787 12.5578
199 1 5.63561 5.97977 12.8391
200 1 5.54785 5.49993 12.0239
201 1 6.14545 30.684 0.451691
202 1 6.65376 29.9164 0.622944
203 1 6.50645 29.0523 1.13727
204 1 7.51699 29.0218 1.25481
205 1 8.02794 29.1032 2.06846
206 1 7.06468 28.9526 2.19946
207 1 6.89614 29.9441 2.0519
208 1 6.22992 29.4083 2.48958
209 1 -18.0841 9.58654 7.62965
210 1 -17.6942 10.4116 7.48289
211 1 -17.2512 11.1328 7.3942
212 1 -17.0512 10.5359 6.71656
213 1 -17.9317 10.0772 6.4928
214 1 -17.667 10.2565 5.52441
215 1 -17.869 10.3038 4.54696
216 1 -17.5494 10.0662 3.68466
217 1 20.616 12.5488 8.96438
218 1 20.5182 12.6206 8.01038
219 1 20.7598 13.4963 7.68803
220 1 20.4461 14.3198 7.17357
221 1 20.0951 13.4935 6.7456
222 1 20.6398 13.5011 5.82839
223 1 20.1929 13.7404 4.99809
224 1 19.6704 14.5481 4.84355
225 1 14.6479 16.6072 9.40159
226 1 14.9296 15.7086 9.79193
227 1 14.2293 15.9914 10.5749
228 1 13.642 15.9649 9.79894
229 1 13.6216 16.5785 9.02304
230 1 13.9489 17.2635 9.52133
231 1 14.3309 17.0915 10.4435
232 1 13.5394 17.2535 10.9645
233 1 14.9344 29.3859 9.82744
234 1 15.6602 29.7811 10.3567
235 1 14.7268 29.7402 10.8159
236 1 14.0562 29.7848 11.4462
237 1 13.2872 29.3677 11.6942
238 1 13.6362 28.9024 12.5063
239 1 14.5173 28.9308 12.2641
240 1 14.3598 28.8554 11.3171
241 2 -10.1762 2.40142 23.9833
242 2 -10.0914 2.6626 24.8522
243 2 -10.7784 3.11402 24.2705
244 2 -11.5251 3.65785 24.5297
245 2 -12.1545 3.1067 23.9158
246 2 -12.8347 2.60595 24.3667
247 2 -13.5188 2.76604 23.6399
248 2 -13.8633 2.05958 24.1833
249 2 29.7847 -5.37973 16.6917
250 2 29.0393 -4.83701 16.4029
251 2 28.6104 -5.15871 17.1457
252 2 28.8688 -5.70222 18.0016
253 2 28.8902 -5.91893 18.9378
254 2 28.8879 -5.94418 19.9183
255 2 29.3668 -6.3154 20.7223
256 2 28.8325 -6.55452 21.5331
257 2 10.7949 -2.74298 31.5597
258 2 10.7892 -2.36667 30.6934
259 2 10.9701 -2.96344 30.0012
260 2 11.3639 -2.80135 29.1618
261 2 11.6711 -1.88108 29.1016
262 2 11.0245 -1.57908 29.8302
263 2 11.9023 -1.67647 30.0889
264 2 12.0449 -2.55753 30.3164
265 2 14.5715 -2.51333 21.5257
266 2 14.5816 -2.69186 20.4833
267 2 13.7015 -2.54238 20.0598
268 2 13.0348 -1.83579 19.8742
269 2 12.3852 -2.36851 20.3153
270 2 11.5067 -2.76714 20.3006
271 2 11.3624 -1.87002 20.3175
272 2 11.4979 -1.99092 21.26
273 2 32.5118 -23.1032 16.931
274 2 31.9507 -22.8595 16.1936
275 2 31.5509 -22.9388 17.1889
276 2 31.7794 -23.916 17.2421
277 2 31.7576 -23.6064 18.1132
278 2 32.5465 -23.2898 18.7048
279 2 32.5688 -24.2469 18.3668
280 2 33.0984 -24.8523 17.8248
281 2 29.02 4.80066 43.3945
282 2 28.7177 3.84795 43.4689
283 2 29.5967 3.97353 43.721
284 2 29.7716 4.02913 44.6479
285 2 30.4861 4.05434 44.0756
286 2 30.2321 4.94612 44.0168
287 2 31.1584 5.14254 43.9306
288 2 31.4447 4.66242 43.1767
289 2 -3.22984 21.8856 3.9863
290 2 -3.15331 22.1658 4.90717
291 2 -2.37593 21.9794 5.42787
292 2 -1.76846 22.3069 4.65565
293 2 -2.40097 23.019 4.7482
294 2 -2.72149 23.3744 3.91085
295 2 -3.37377 23.5356 4.54685
296 2 -3.19807 23.0606 5.3862
297 2 16.28 14.452 31.143
298 2 17.0593 13.9052 30.9033
299 2 16.3337 13.3492 30.7231
300 2 16.4796 13.3549 31.6241
301 2 17.253 12.779 31.3841
302 2 18.0989 12.9828 30.9649
303 2 18.2823 13.8758 30.407
304 2 18.5103 13.4094 29.5313
305 2 1.0241 18.4266 11.7081
306 2 1.75615 18.8667 11.356
307 2 2.18903 18.7892 10.5253
308 2 1.47985 18.0914 10.3532
309 2 0.537546 17.853 10.3581
310 2 -0.204654 17.2993 9.92788
311 2 0.026703 16.3321 9.86437
312 2 0.492685 16.8355 10.5514
313 2 16.6339 18.139 22.901
314 2 17.427 17.7413 22.5609
315 2 17.5693 17.0505 21.7717
316 2 17.5216 16.2899 22.4667
317 2 16.6815 16.546 22.8302
318 2 16.9478 16.8137 23.795
319 2 17.3605 15.9295 23.6292
320 2 16.8314 15.7821 24.3803
321 2 12.3308 21.5249 34.3771
322 2 11.9384 21.6253 33.4663
323 2 12.6248 21.0115 33.0134
324 2 13.1425 20.853 32.1816
325 2 13.469 21.4959 31.5663
326 2 14.153 21.6048 30.8964
327 2 13.3715 21.0701 30.6574
328 2 13.456 20.193 30.4729
329 2 33.1091 17.2513 24.215
330 2 32.4497 16.5405 24.2239
331 2 33.3272 16.3091 24.4949
332 2 32.9351 15.4493 24.2771
333 2 32.7269 15.2571 25.1661
334 2 33.628 14.8396 25.2514
335 2 33.9349 14.609 26.1971
336 2 34.6529 15.2339 26.0695
337 2 17.4068 19.5551 26.2802
338 2 16.9751 19.3256 25.4756
339 2 17.5055 19.0871 24.6864
340 2 18.188 19.2668 25.2844
341 2 17.9441 20.2295 25.0663
342 2 17.6694 20.1154 24.1378
343 2 17.2212 19.9333 23.2737
344 2 16.341 20.3811 23.0778
345 2 6.88101 16.303 33.911
346 2 6.90198 15.4414 33.4454
347 2 7.73713 14.8719 33.4813
348 2 7.7387 13.9433 33.373
349 2 6.96626 14.0868 33.845
350 2 6.99427 14.3601 32.7804
351 2 6.43312 13.6159 33.0244
352 2 5.5531 13.2805 33.3698
353 2 5.69859 6.73105 20.4597
354 2 6.17185 6.9311 19.6839
355 2 5.32757 7.35819 19.7339
356 2 4.90585 6.56557 19.4686
357 2 4.56505 7.21248 18.7656
358 2 3.68503 7.45218 18.2559
359 2 4.1594 8.11068 18.7623
360 2 4.03954 9.00469 19.0057
361 2 29.0729 1.73987 27.5033
362 2 29.5923 1.61682 26.6499
363 2 29.767 0.978156 27.3878
364 2 29.727 1.36045 28.2711
365 2 29.17 1.0469 29.0381
366 2 28.3411 1.17795 28.4832
367 2 28.4657 2.07372 28.4787
368 2 27.7523 1.88621 29.1059
369 2 35.9852 11.7595 17.9389
370 2 36.8062 11.8146 17.5424
371 2 36.9466 12.0376 18.4413
372 2 36.0509 12.1994 18.9485
373 2 35.739 11.8889 19.8307
374 2 35.0462 12.578 19.817
375 2 34.9432 11.9315 20.4732
376 2 34.2483 11.5458 20.9422
377 2 11.7266 2.47496 22.7344
378 2 12.0701 2.7441 23.5898
379 2 12.733 2.06575 24.0196
380 2 12.9828 1.50266 24.7725
381 2 13.7035 1.43348 23.9839
382 2 13.9572 0.85362 24.76
383 2 14.6782 1.06688 25.3607
384 2 15.566 1.14372 24.9393
385 2 10.9617 15.4672 27.7834
386 2 10.2117 14.9956 27.3997
387 2 10.7675 15.2628 26.7083
388 2 11.5307 15.9131 26.8718
389 2 10.8347 16.1624 26.0855
390 2 11.2634 16.0673 25.1798
391 2 10.4241 16.3835 24.8784
392 2 9.93647 16.0281 24.123
393 2 18.7249 30.3471 37.0312
394 2 18.9679 29.4678 37.0103
395 2 18.5977 29.2078 37.8371
396 2 17.9846 29.2625 38.5521
397 2 18.0242 30.2873 38.5012
398 2 17.4532 30.7387 37.9429
399 2 17.9286 31.3749 38.4278
400 2 17.9896 31.956 37.6302
401 2 10.2439 29.4994 29.0452
402 2 9.39094 29.9439 28.9013
403 2 9.2879 30.8393 28.7249
404 2 10.1976 30.8256 29.0193
405 2 9.83899 30.579 29.8184
406 2 9.05461 31.0117 29.9152
407 2 8.87427 31.9443 29.9058
408 2 8.95885 32.249 28.9324
409 2 35.4983 16.7411 28.6337
410 2 34.9138 17.015 29.3296
411 2 34.9408 16.8967 30.2326
412 2 35.414 16.1573 29.9556
413 2 35.4665 15.2187 30.0658
414 2 36.1338 15.5168 30.7346
415 2 35.4051 16.0777 31.0871
416 2 34.5001 15.6302 30.7594
417 2 38.2098 15.5973 18.0916
418 2 38.1972 15.6067 19.0266
419 2 37.7839 15.1576 19.8691
420 2 37.3127 16.0527 19.5462
421 2 37.2974 16.5435 20.3361
422 2 38.2739 16.1124 20.5351
423 2 38.2312 16.9392 20.1486
424 2 38.1708 17.8281 20.6936
425 2 18.2487 19.683 37.1138
426 2 18.053 18.6553 37.3621
427 2 18.3779 18.4729 36.4667
428 2 17.5881 17.9096 36.1122
429 2 17.9917 17.0539 36.3387
430 2 18.777 17.6103 36.6697
431 2 18.4982 17.4649 37.5818
432 2 19.4606 17.326 37.5689
433 2 -0.640169 29.5386 6.94555
434 2 -0.450801 28.5547 7.08305
435 2 -1.2975 28.3148 7.4314
436 2 -0.551524 27.8029 8.00299
437 2 -1.14374 28.0631 8.84995
438 2 -1.45601 27.0844 8.66548
439 2 -2.12102 27.076 7.95709
440 2 -2.39778 27.6943 8.69897
441 2 0.946939 28.2858 38.9871
442 2 0.347956 28.602 38.2839
443 2 1.03467 29.2086 38.288
444 2 1.34812 30.0291 37.7193
445 2 1.86172 29.7569 36.837
446 2 2.16511 30.4131 36.1088
447 2 2.03431 29.7238 35.5259
448 2 1.63033 29.0135 35.987
449 2 -6.0842 35.5877 -0.976814
450 2 -6.10451 34.6235 -0.977216
451 2 -5.69527 33.6712 -1.07621
452 2 -5.24022 34.4763 -1.28915
453 2 -4.93512 35.3437 -1.45096
454 2 -4.28681 35.6372 -2.06053
455 2 -4.71195 36.3859 -1.53241
456 2 -3.88425 36.5692 -0.867999
457 2 0.718806 37.5113 23.7984
458 2 0.948285 36.8942 23.1043
459 2 1.77056 37.402 23.0557
460 2 1.95166 36.6933 22.3448
461 2 2.4773 36.8138 21.4438
462 2 1.61132 36.5837 21.1466
463 2 1.33098 36.1068 21.9945
464 2 0.469232 36.0403 21.4432
465 2 34.5616 32.3422 11.3922
466 2 33.6891 32.5959 11.5228
467 2 32.7265 32.7599 11.182
468 2 32.923 32.2309 10.1985
469 2 32.2969 32.7774 9.74553
470 2 31.6084 32.3586 10.2811
471 2 31.2088 33.0253 9.737
472 2 31.5033 32.2982 9.23334
473 2 16.2964 31.6644 7.14578
474 2 16.4934 32.3271 6.42859
475 2 16.6429 33.2607 6.69937
476 2 15.9811 32.8037 7.22196
477 2 15.1882 33.3369 7.09471
478 2 15.3567 33.1654 6.24336
479 2 15.9836 33.91 6.18051
480 2 15.3767 34.32 7.056
ITEM: TIMESTEP
2000
ITEM: NUMBER OF ATOMS
480
ITEM: BOX BOUNDS pp pp pp
0.0000000000000000e+00 3.2000000000000000e+01
0.0000000000000000e+00 3.2000000000000000e+01
0.0000000000000000e+00 3.2000000000000000e+01
ITEM: ATOMS id type xu yu zu
1 1 4.3858 -4.42385 -1.01352
2 1 4.84996 -4.92746 -0.307145
3 1 5.2857 -4.08958 0.0423662
4 1 5.81294 -3.51825 -0.473334
5 1 6.31566 -3.75189 -1.26426
6 1 6.49089 -2.89097 -1.13611
7 1 6.77228 -3.0271 -0.193766
8 1 7.50676 -2.63358 -0.56971
9 1 -5.91128 7.61995 13.7568
10 1 -6.61666 7.37086 14.395
11 1 -7.37992 7.39538 13.8206
12 1 -7.92429 6.7064 14.0699
13 1 -8.52016 6.67844 13.3171
14 1 -7.78921 6.0624 13.1501
15 1 -7.46762 5.09903 13.4834