LAMMPS data file for charged polymer chains

1632 atoms
1564 bonds

2 atom types
1 bond types

0.0 32.0 xlo xhi
0.0 32.0 ylo yhi
0.0 32.0 zlo zhi

Masses

1 1.0  # Type A
2 1.0  # Type B

Atoms # full

1 1 1 1.0 0.000 0.000 0.000
2 1 1 1.0 0.000 0.000 0.604
3 1 1 1.0 0.000 0.000 1.208
4 1 1 1.0 0.000 0.000 1.811
5 1 1 1.0 0.000 0.000 2.415
6 1 1 1.0 0.000 0.000 3.019
7 1 1 1.0 0.000 0.000 3.623
8 1 1 1.0 0.000 0.000 4.226
9 1 1 1.0 0.000 0.000 4.830
10 1 1 1.0 0.000 0.000 5.434
11 1 1 1.0 0.000 0.000 6.038
12 1 1 1.0 0.000 0.000 6.642
13 1 1 -1.0 0.000 0.000 7.245
14 1 1 -1.0 0.000 0.000 7.849
15 1 1 -1.0 0.000 0.000 8.453
16 1 1 -1.0 0.000 0.000 9.057
17 1 1 -1.0 0.000 0.000 9.660
18 1 1 -1.0 0.000 0.000 10.264
19 1 1 -1.0 0.000 0.000 10.868
20 1 1 -1.0 0.000 0.000 11.472
21 1 1 -1.0 0.000 0.000 12.075
22 1 1 -1.0 0.000 0.000 12.679
23 1 1 -1.0 0.000 0.000 13.283
24 1 1 -1.0 0.000 0.000 13.887
25 2 1 1.0 5.079 0.000 0.000
26 2 1 1.0 5.079 0.000 0.604
27 2 1 1.0 5.079 0.000 1.208
28 2 1 1.0 5.079 0.000 1.811
29 2 1 1.0 5.079 0.000 2.415
30 2 1 1.0 5.079 0.000 3.019
31 2 1 1.0 5.079 0.000 3.623
32 2 1 1.0 5.079 0.000 4.226
33 2 1 1.0 5.079 0.000 4.830
34 2 1 1.0 5.079 0.000 5.434
35 2 1 1.0 5.079 0.000 6.038
36 2 1 1.0 5.079 0.000 6.642
37 2 1 -1.0 5.079 0.000 7.245
38 2 1 -1.0 5.079 0.000 7.849
39 2 1 -1.0 5.079 0.000 8.453
40 2 1 -1.0 5.079 0.000 9.057
41 2 1 -1.0 5.079 0.000 9.660
42 2 1 -1.0 5.079 0.000 10.264
43 2 1 -1.0 5.079 0.000 10.868
44 2 1 -1.0 5.079 0.000 11.472
45 2 1 -1.0 5.079 0.000 12.075
46 2 1 -1.0 5.079 0.000 12.679
47 2 1 -1.0 5.079 0.000 13.283
48 2 1 -1.0 5.079 0.000 13.887
49 3 1 1.0 10.159 0.000 0.000
50 3 1 1.0 10.159 0.000 0.604
51 3 1 1.0 10.159 0.000 1.208
52 3 1 1.0 10.159 0.000 1.811
53 3 1 1.0 10.159 0.000 2.415
54 3 1 1.0 10.159 0.000 3.019
55 3 1 1.0 10.159 0.000 3.623
56 3 1 1.0 10.159 0.000 4.226
57 3 1 1.0 10.159 0.000 4.830
58 3 1 1.0 10.159 0.000 5.434
59 3 1 1.0 10.159 0.000 6.038
60 3 1 1.0 10.159 0.000 6.642
61 3 1 -1.0 10.159 0.000 7.245
62 3 1 -1.0 10.159 0.000 7.849
63 3 1 -1.0 10.159 0.000 8.453
64 3 1 -1.0 10.159 0.000 9.057
65 3 1 -1.0 10.159 0.000 9.660
66 3 1 -1.0 10.159 0.000 10.264
67 3 1 -1.0 10.159 0.000 10.868
68 3 1 -1.0 10.159 0.000 11.472
69 3 1 -1.0 10.159 0.000 12.075
70 3 1 -1.0 10.159 0.000 12.679
71 3 1 -1.0 10.159 0.000 13.283
72 3 1 -1.0 10.159 0.000 13.887
73 4 1 1.0 15.238 0.000 0.000
74 4 1 1.0 15.238 0.000 0.604
75 4 1 1.0 15.238 0.000 1.208
76 4 1 1.0 15.238 0.000 1.811
77 4 1 1.0 15.238 0.000 2.415
78 4 1 1.0 15.238 0.000 3.019
79 4 1 1.0 15.238 0.000 3.623
80 4 1 1.0 15.238 0.000 4.226
81 4 1 1.0 15.238 0.000 4.830
82 4 1 1.0 15.238 0.000 5.434
83 4 1 1.0 15.238 0.000 6.038
84 4 1 1.0 15.238 0.000 6.642
85 4 1 -1.0 15.238 0.000 7.245
86 4 1 -1.0 15.238 0.000 7.849
87 4 1 -1.0 15.238 0.000 8.453
88 4 1 -1.0 15.238 0.000 9.057
89 4 1 -1.0 15.238 0.000 9.660
90 4 1 -1.0 15.238 0.000 10.264
91 4 1 -1.0 15.238 0.000 10.868
92 4 1 -1.0 15.238 0.000 11.472
93 4 1 -1.0 15.238 0.000 12.075
94 4 1 -1.0 15.238 0.000 12.679
95 4 1 -1.0 15.238 0.000 13.283
96 4 1 -1.0 15.238 0.000 13.887
97 5 1 1.0 20.317 0.000 0.000
98 5 1 1.0 20.317 0.000 0.604
99 5 1 1.0 20.317 0.000 1.208
100 5 1 1.0 20.317 0.000 1.811
101 5 1 1.0 20.317 0.000 2.415
102 5 1 1.0 20.317 0.000 3.019
103 5 1 1.0 20.317 0.000 3.623
104 5 1 1.0 20.317 0.000 4.226
105 5 1 1.0 20.317 0.000 4.830
106 5 1 1.0 20.317 0.000 5.434
107 5 1 1.0 20.317 0.000 6.038
108 5 1 1.0 20.317 0.000 6.642
109 5 1 -1.0 20.317 0.000 7.245
110 5 1 -1.0 20.317 0.000 7.849
111 5 1 -1.0 20.317 0.000 8.453
112 5 1 -1.0 20.317 0.000 9.057
113 5 1 -1.0 20.317 0.000 9.660
114 5 1 -1.0 20.317 0.000 10.264
115 5 1 -1.0 20.317 0.000 10.868
116 5 1 -1.0 20.317 0.000 11.472
117 5 1 -1.0 20.317 0.000 12.075
118 5 1 -1.0 20.317 0.000 12.679
119 5 1 -1.0 20.317 0.000 13.283
120 5 1 -1.0 20.317 0.000 13.887
121 6 1 1.0 25.397 0.000 0.000
122 6 1 1.0 25.397 0.000 0.604
123 6 1 1.0 25.397 0.000 1.208
124 6 1 1.0 25.397 0.000 1.811
125 6 1 1.0 25.397 0.000 2.415
126 6 1 1.0 25.397 0.000 3.019
127 6 1 1.0 25.397 0.000 3.623
128 6 1 1.0 25.397 0.000 4.226
129 6 1 1.0 25.397 0.000 4.830
130 6 1 1.0 25.397 0.000 5.434
131 6 1 1.0 25.397 0.000 6.038
132 6 1 1.0 25.397 0.000 6.642
133 6 1 -1.0 25.397 0.000 7.245
134 6 1 -1.0 25.397 0.000 7.849
135 6 1 -1.0 25.397 0.000 8.453
136 6 1 -1.0 25.397 0.000 9.057
137 6 1 -1.0 25.397 0.000 9.660
138 6 1 -1.0 25.397 0.000 10.264
139 6 1 -1.0 25.397 0.000 10.868
140 6 1 -1.0 25.397 0.000 11.472
141 6 1 -1.0 25.397 0.000 12.075
142 6 1 -1.0 25.397 0.000 12.679
143 6 1 -1.0 25.397 0.000 13.283
144 6 1 -1.0 25.397 0.000 13.887
145 7 1 1.0 0.000 5.079 0.000
146 7 1 1.0 0.000 5.079 0.604
147 7 1 1.0 0.000 5.079 1.208
148 7 1 1.0 0.000 5.079 1.811
149 7 1 1.0 0.000 5.079 2.415
150 7 1 1.0 0.000 5.079 3.019
151 7 1 1.0 0.000 5.079 3.623
152 7 1 1.0 0.000 5.079 4.226
153 7 1 1.0 0.000 5.079 4.830
154 7 1 1.0 0.000 5.079 5.434
155 7 1 1.0 0.000 5.079 6.038
156 7 1 1.0 0.000 5.079 6.642
157 7 1 -1.0 0.000 5.079 7.245
158 7 1 -1.0 0.000 5.079 7.849
159 7 1 -1.0 0.000 5.079 8.453
160 7 1 -1.0 0.000 5.079 9.057
161 7 1 -1.0 0.000 5.079 9.660
162 7 1 -1.0 0.000 5.079 10.264
163 7 1 -1.0 0.000 5.079 10.868
164 7 1 -1.0 0.000 5.079 11.472
165 7 1 -1.0 0.000 5.079 12.075
166 7 1 -1.0 0.000 5.079 12.679
167 7 1 -1.0 0.000 5.079 13.283
168 7 1 -1.0 0.000 5.079 13.887
169 8 1 1.0 5.079 5.079 0.000
170 8 1 1.0 5.079 5.079 0.604
171 8 1 1.0 5.079 5.079 1.208
172 8 1 1.0 5.079 5.079 1.811
173 8 1 1.0 5.079 5.079 2.415
174 8 1 1.0 5.079 5.079 3.019
175 8 1 1.0 5.079 5.079 3.623
176 8 1 1.0 5.079 5.079 4.226
177 8 1 1.0 5.079 5.079 4.830
178 8 1 1.0 5.079 5.079 5.434
179 8 1 1.0 5.079 5.079 6.038
180 8 1 1.0 5.079 5.079 6.642
181 8 1 -1.0 5.079 5.079 7.245
182 8 1 -1.0 5.079 5.079 7.849
183 8 1 -1.0 5.079 5.079 8.453
184 8 1 -1.0 5.079 5.079 9.057
185 8 1 -1.0 5.079 5.079 9.660
186 8 1 -1.0 5.079 5.079 10.264
187 8 1 -1.0 5.079 5.079 10.868
188 8 1 -1.0 5.079 5.079 11.472
189 8 1 -1.0 5.079 5.079 12.075
190 8 1 -1.0 5.079 5.079 12.679
191 8 1 -1.0 5.079 5.079 13.283
192 8 1 -1.0 5.079 5.079 13.887
193 9 1 1.0 10.159 5.079 0.000
194 9 1 1.0 10.159 5.079 0.604
195 9 1 1.0 10.159 5.079 1.208
196 9 1 1.0 10.159 5.079 1.811
197 9 1 1.0 10.159 5.079 2.415
198 9 1 1.0 10.159 5.079 3.019
199 9 1 1.0 10.159 5.079 3.623
200 9 1 1.0 10.159 5.079 4.226
201 9 1 1.0 10.159 5.079 4.830
202 9 1 1.0 10.159 5.079 5.434
203 9 1 1.0 10.159 5.079 6.038
204 9 1 1.0 10.159 5.079 6.642
205 9 1 -1.0 10.159 5.079 7.245
206 9 1 -1.0 10.159 5.079 7.849
207 9 1 -1.0 10.159 5.079 8.453
208 9 1 -1.0 10.159 5.079 9.057
209 9 1 -1.0 10.159 5.079 9.660
210 9 1 -1.0 10.159 5.079 10.264
211 9 1 -1.0 10.159 5.079 10.868
212 9 1 -1.0 10.159 5.079 11.472
213 9 1 -1.0 10.159 5.079 12.075
214 9 1 -1.0 10.159 5.079 12.679
215 9 1 -1.0 10.159 5.079 13.283
216 9 1 -1.0 10.159 5.079 13.887
217 10 1 1.0 15.238 5.079 0.000
218 10 1 1.0 15.238 5.079 0.604
219 10 1 1.0 15.238 5.079 1.208
220 10 1 1.0 15.238 5.079 1.811
221 10 1 1.0 15.238 5.079 2.415
222 10 1 1.0 15.238 5.079 3.019
223 10 1 1.0 15.238 5.079 3.623
224 10 1 1.0 15.238 5.079 4.226
225 10 1 1.0 15.238 5.079 4.830
226 10 1 1.0 15.238 5.079 5.434
227 10 1 1.0 15.238 5.079 6.038
228 10 1 1.0 15.238 5.079 6.642
229 10 1 -1.0 15.238 5.079 7.245
230 10 1 -1.0 15.238 5.079 7.849
231 10 1 -1.0 15.238 5.079 8.453
232 10 1 -1.0 15.238 5.079 9.057
233 10 1 -1.0 15.238 5.079 9.660
234 10 1 -1.0 15.238 5.079 10.264
235 10 1 -1.0 15.238 5.079 10.868
236 10 1 -1.0 15.238 5.079 11.472
237 10 1 -1.0 15.238 5.079 12.075
238 10 1 -1.0 15.238 5.079 12.679
239 10 1 -1.0 15.238 5.079 13.283
240 10 1 -1.0 15.238 5.079 13.887
241 11 1 1.0 20.317 5.079 0.000
242 11 1 1.0 20.317 5.079 0.604
243 11 1 1.0 20.317 5.079 1.208
244 11 1 1.0 20.317 5.079 1.811
245 11 1 1.0 20.317 5.079 2.415
246 11 1 1.0 20.317 5.079 3.019
247 11 1 1.0 20.317 5.079 3.623
248 11 1 1.0 20.317 5.079 4.226
249 11 1 1.0 20.317 5.079 4.830
250 11 1 1.0 20.317 5.079 5.434
251 11 1 1.0 20.317 5.079 6.038
252 11 1 1.0 20.317 5.079 6.642
253 11 1 -1.0 20.317 5.079 7.245
254 11 1 -1.0 20.317 5.079 7.849
255 11 1 -1.0 20.317 5.079 8.453
256 11 1 -1.0 20.317 5.079 9.057
257 11 1 -1.0 20.317 5.079 9.660
258 11 1 -1.0 20.317 5.079 10.264
259 11 1 -1.0 20.317 5.079 10.868
260 11 1 -1.0 20.317 5.079 11.472
261 11 1 -1.0 20.317 5.079 12.075
262 11 1 -1.0 20.317 5.079 12.679
263 11 1 -1.0 20.317 5.079 13.283
264 11 1 -1.0 20.317 5.079 13.887
265 12 1 1.0 25.397 5.079 0.000
266 12 1 1.0 25.397 5.079 0.604
267 12 1 1.0 25.397 5.079 1.208
268 12 1 1.0 25.397 5.079 1.811
269 12 1 1.0 25.397 5.079 2.415
270 12 1 1.0 25.397 5.079 3.019
271 12 1 1.0 25.397 5.079 3.623
272 12 1 1.0 25.397 5.079 4.226
273 12 1 1.0 25.397 5.079 4.830
274 12 1 1.0 25.397 5.079 5.434
275 12 1 1.0 25.397 5.079 6.038
276 12 1 1.0 25.397 5.079 6.642
277 12 1 -1.0 25.397 5.079 7.245
278 12 1 -1.0 25.397 5.079 7.849
279 12 1 -1.0 25.397 5.079 8.453
280 12 1 -1.0 25.397 5.079 9.057
281 12 1 -1.0 25.397 5.079 9.660
282 12 1 -1.0 25.397 5.079 10.264
283 12 1 -1.0 25.397 5.079 10.868
284 12 1 -1.0 25.397 5.079 11.472
285 12 1 -1.0 25.397 5.079 12.075
286 12 1 -1.0 25.397 5.079 12.679
287 12 1 -1.0 25.397 5.079 13.283
288 12 1 -1.0 25.397 5.079 13.887
289 13 1 1.0 0.000 10.159 0.000
290 13 1 1.0 0.000 10.159 0.604
291 13 1 1.0 0.000 10.159 1.208
292 13 1 1.0 0.000 10.159 1.811
293 13 1 1.0 0.000 10.159 2.415
294 13 1 1.0 0.000 10.159 3.019
295 13 1 1.0 0.000 10.159 3.623
296 13 1 1.0 0.000 10.159 4.226
297 13 1 1.0 0.000 10.159 4.830
298 13 1 1.0 0.000 10.159 5.434
299 13 1 1.0 0.000 10.159 6.038
300 13 1 1.0 0.000 10.159 6.642
301 13 1 -1.0 0.000 10.159 7.245
302 13 1 -1.0 0.000 10.159 7.849
303 13 1 -1.0 0.000 10.159 8.453
304 13 1 -1.0 0.000 10.159 9.057
305 13 1 -1.0 0.000 10.159 9.660
306 13 1 -1.0 0.000 10.159 10.264
307 13 1 -1.0 0.000 10.159 10.868
308 13 1 -1.0 0.000 10.159 11.472
309 13 1 -1.0 0.000 10.159 12.075
310 13 1 -1.0 0.000 10.159 12.679
311 13 1 -1.0 0.000 10.159 13.283
312 13 1 -1.0 0.000 10.159 13.887
313 14 1 1.0 5.079 10.159 0.000
314 14 1 1.0 5.079 10.159 0.604
315 14 1 1.0 5.079 10.159 1.208
316 14 1 1.0 5.079 10.159 1.811
317 14 1 1.0 5.079 10.159 2.415
318 14 1 1.0 5.079 10.159 3.019
319 14 1 1.0 5.079 10.159 3.623
320 14 1 1.0 5.079 10.159 4.226
321 14 1 1.0 5.079 10.159 4.830
322 14 1 1.0 5.079 10.159 5.434
323 14 1 1.0 5.079 10.159 6.038
324 14 1 1.0 5.079 10.159 6.642
325 14 1 -1.0 5.079 10.159 7.245
326 14 1 -1.0 5.079 10.159 7.849
327 14 1 -1.0 5.079 10.159 8.453
328 14 1 -1.0 5.079 10.159 9.057
329 14 1 -1.0 5.079 10.159 9.660
330 14 1 -1.0 5.079 10.159 10.264
331 14 1 -1.0 5.079 10.159 10.868
332 14 1 -1.0 5.079 10.159 11.472
333 14 1 -1.0 5.079 10.159 12.075
334 14 1 -1.0 5.079 10.159 12.679
335 14 1 -1.0 5.079 10.159 13.283
336 14 1 -1.0 5.079 10.159 13.887
337 15 1 1.0 10.159 10.159 0.000
338 15 1 1.0 10.159 10.159 0.604
339 15 1 1.0 10.159 10.159 1.208
340 15 1 1.0 10.159 10.159 1.811
341 15 1 1.0 10.159 10.159 2.415
342 15 1 1.0 10.159 10.159 3.019
343 15 1 1.0 10.159 10.159 3.623
344 15 1 1.0 10.159 10.159 4.226
345 15 1 1.0 10.159 10.159 4.830
346 15 1 1.0 10.159 10.159 5.434
347 15 1 1.0 10.159 10.159 6.038
348 15 1 1.0 10.159 10.159 6.642
349 15 1 -1.0 10.159 10.159 7.245
350 15 1 -1.0 10.159 10.159 7.849
351 15 1 -1.0 10.159 10.159 8.453
352 15 1 -1.0 10.159 10.159 9.057
353 15 1 -1.0 10.159 10.159 9.660
354 15 1 -1.0 10.159 10.159 10.264
355 15 1 -1.0 10.159 10.159 10.868
356 15 1 -1.0 10.159 10.159 11.472
357 15 1 -1.0 10.159 10.159 12.075
358 15 1 -1.0 10.159 10.159 12.679
359 15 1 -1.0 10.159 10.159 13.283
360 15 1 -1.0 10.159 10.159 13.887
361 16 1 1.0 15.238 10.159 0.000
362 16 1 1.0 15.238 10.159 0.604
363 16 1 1.0 15.238 10.159 1.208
364 16 1 1.0 15.238 10.159 1.811
365 16 1 1.0 15.238 10.159 2.415
366 16 1 1.0 15.238 10.159 3.019
367 16 1 1.0 15.238 10.159 3.623
368 16 1 1.0 15.238 10.159 4.226
369 16 1 1.0 15.238 10.159 4.830
370 16 1 1.0 15.238 10.159 5.434
371 16 1 1.0 15.238 10.159 6.038
372 16 1 1.0 15.238 10.159 6.642
373 16 1 -1.0 15.238 10.159 7.245
374 16 1 -1.0 15.238 10.159 7.849
375 16 1 -1.0 15.238 10.159 8.453
376 16 1 -1.0 15.238 10.159 9.057
377 16 1 -1.0 15.238 10.159 9.660
378 16 1 -1.0 15.238 10.159 10.264
379 16 1 -1.0 15.238 10.159 10.868
380 16 1 -1.0 15.238 10.159 11.472
381 16 1 -1.0 15.238 10.159 12.075
382 16 1 -1.0 15.238 10.159 12.679
383 16 1 -1.0 15.238 10.159 13.283
384 16 1 -1.0 15.238 10.159 13.887
385 17 1 1.0 20.317 10.159 0.000
386 17 1 1.0 20.317 10.159 0.604
387 17 1 1.0 20.317 10.159 1.208
388 17 1 1.0 20.317 10.159 1.811
389 17 1 1.0 20.317 10.159 2.415
390 17 1 1.0 20.317 10.159 3.019
391 17 1 1.0 20.317 10.159 3.623
392 17 1 1.0 20.317 10.159 4.226
393 17 1 1.0 20.317 10.159 4.830
394 17 1 1.0 20.317 10.159 5.434
395 17 1 1.0 20.317 10.159 6.038
396 17 1 1.0 20.317 10.159 6.642
397 17 1 -1.0 20.317 10.159 7.245
398 17 1 -1.0 20.317 10.159 7.849
399 17 1 -1.0 20.317 10.159 8.453
400 17 1 -1.0 20.317 10.159 9.057
401 17 1 -1.0 20.317 10.159 9.660
402 17 1 -1.0 20.317 10.159 10.264
403 17 1 -1.0 20.317 10.159 10.868
404 17 1 -1.0 20.317 10.159 11.472
405 17 1 -1.0 20.317 10.159 12.075
406 17 1 -1.0 20.317 10.159 12.679
407 17 1 -1.0 20.317 10.159 13.283
408 17 1 -1.0 20.317 10.159 13.887
409 18 1 1.0 25.397 10.159 0.000
410 18 1 1.0 25.397 10.159 0.604
411 18 1 1.0 25.397 10.159 1.208
412 18 1 1.0 25.397 10.159 1.811
413 18 1 1.0 25.397 10.159 2.415
414 18 1 1.0 25.397 10.159 3.019
415 18 1 1.0 25.397 10.159 3.623
416 18 1 1.0 25.397 10.159 4.226
417 18 1 1.0 25.397 10.159 4.830
418 18 1 1.0 25.397 10.159 5.434
419 18 1 1.0 25.397 10.159 6.038
420 18 1 1.0 25.397 10.159 6.642
421 18 1 -1.0 25.397 10.159 7.245
422 18 1 -1.0 25.397 10.159 7.849
423 18 1 -1.0 25.397 10.159 8.453
424 18 1 -1.0 25.397 10.159 9.057
425 18 1 -1.0 25.397 10.159 9.660
426 18 1 -1.0 25.397 10.159 10.264
427 18 1 -1.0 25.397 10.159 10.868
428 18 1 -1.0 25.397 10.159 11.472
429 18 1 -1.0 25.397 10.159 12.075
430 18 1 -1.0 25.397 10.159 12.679
431 18 1 -1.0 25.397 10.159 13.283
432 18 1 -1.0 25.397 10.159 13.887
433 19 1 1.0 0.000 15.238 0.000
434 19 1 1.0 0.000 15.238 0.604
435 19 1 1.0 0.000 15.238 1.208
436 19 1 1.0 0.000 15.238 1.811
437 19 1 1.0 0.000 15.238 2.415
438 19 1 1.0 0.000 15.238 3.019
439 19 1 1.0 0.000 15.238 3.623
440 19 1 1.0 0.000 15.238 4.226
441 19 1 1.0 0.000 15.238 4.830
442 19 1 1.0 0.000 15.238 5.434
443 19 1 1.0 0.000 15.238 6.038
444 19 1 1.0 0.000 15.238 6.642
445 19 1 -1.0 0.000 15.238 7.245
446 19 1 -1.0 0.000 15.238 7.849
447 19 1 -1.0 0.000 15.238 8.453
448 19 1 -1.0 0.000 15.238 9.057
449 19 1 -1.0 0.000 15.238 9.660
450 19 1 -1.0 0.000 15.238 10.264
451 19 1 -1.0 0.000 15.238 10.868
452 19 1 -1.0 0.000 15.238 11.472
453 19 1 -1.0 0.000 15.238 12.075
454 19 1 -1.0 0.000 15.238 12.679
455 19 1 -1.0 0.000 15.238 13.283
456 19 1 -1.0 0.000 15.238 13.887
457 20 1 1.0 5.079 15.238 0.000
458 20 1 1.0 5.079 15.238 0.604
459 20 1 1.0 5.079 15.238 1.208
460 20 1 1.0 5.079 15.238 1.811
461 20 1 1.0 5.079 15.238 2.415
462 20 1 1.0 5.079 15.238 3.019
463 20 1 1.0 5.079 15.238 3.623
464 20 1 1.0 5.079 15.238 4.226
465 20 1 1.0 5.079 15.238 4.830
466 20 1 1.0 5.079 15.238 5.434
467 20 1 1.0 5.079 15.238 6.038
468 20 1 1.0 5.079 15.238 6.642
469 20 1 -1.0 5.079 15.238 7.245
470 20 1 -1.0 5.079 15.238 7.849
471 20 1 -1.0 5.079 15.238 8.453
472 20 1 -1.0 5.079 15.238 9.057
473 20 1 -1.0 5.079 15.238 9.660
474 20 1 -1.0 5.079 15.238 10.264
475 20 1 -1.0 5.079 15.238 10.868
476 20 1 -1.0 5.079 15.238 11.472
477 20 1 -1.0 5.079 15.238 12.075
478 20 1 -1.0 5.079 15.238 12.679
479 20 1 -1.0 5.079 15.238 13.283
480 20 1 -1.0 5.079 15.238 13.887
481 21 1 1.0 10.159 15.238 0.000
482 21 1 1.0 10.159 15.238 0.604
483 21 1 1.0 10.159 15.238 1.208
484 21 1 1.0 10.159 15.238 1.811
485 21 1 1.0 10.159 15.238 2.415
486 21 1 1.0 10.159 15.238 3.019
487 21 1 1.0 10.159 15.238 3.623
488 21 1 1.0 10.159 15.238 4.226
489 21 1 1.0 10.159 15.238 4.830
490 21 1 1.0 10.159 15.238 5.434
491 21 1 1.0 10.159 15.238 6.038
492 21 1 1.0 10.159 15.238 6.642
493 21 1 -1.0 10.159 15.238 7.245
494 21 1 -1.0 10.159 15.238 7.849
495 21 1 -1.0 10.159 15.238 8.453
496 21 1 -1.0 10.159 15.238 9.057
497 21 1 -1.0 10.159 15.238 9.660
498 21 1 -1.0 10.159 15.238 10.264
499 21 1 -1.0 10.159 15.238 10.868
500 21 1 -1.0 10.159 15.238 11.472
501 21 1 -1.0 10.159 15.238 12.075
502 21 1 -1.0 10.159 15.238 12.679
503 21 1 -1.0 10.159 15.238 13.283
504 21 1 -1.0 10.159 15.238 13.887
505 22 1 1.0 15.238 15.238 0.000
506 22 1 1.0 15.238 15.238 0.604
507 22 1 1.0 15.238 15.238 1.208
508 22 1 1.0 15.238 15.238 1.811
509 22 1 1.0 15.238 15.238 2.415
510 22 1 1.0 15.238 15.238 3.019
511 22 1 1.0 15.238 15.238 3.623
512 22 1 1.0 15.238 15.238 4.226
513 22 1 1.0 15.238 15.238 4.830
514 22 1 1.0 15.238 15.238 5.434
515 22 1 1.0 15.238 15.238 6.038
516 22 1 1.0 15.238 15.238 6.642
517 22 1 -1.0 15.238 15.238 7.245
518 22 1 -1.0 15.238 15.238 7.849
519 22 1 -1.0 15.238 15.238 8.453
520 22 1 -1.0 15.238 15.238 9.057
521 22 1 -1.0 15.238 15.238 9.660
522 22 1 -1.0 15.238 15.238 10.264
523 22 1 -1.0 15.238 15.238 10.868
524 22 1 -1.0 15.238 15.238 11.472
525 22 1 -1.0 15.238 15.238 12.075
526 22 1 -1.0 15.238 15.238 12.679
527 22 1 -1.0 15.238 15.238 13.283
528 22 1 -1.0 15.238 15.238 13.887
529 23 1 1.0 20.317 15.238 0.000
530 23 1 1.0 20.317 15.238 0.604
531 23 1 1.0 20.317 15.238 1.208
532 23 1 1.0 20.317 15.238 1.811
533 23 1 1.0 20.317 15.238 2.415
534 23 1 1.0 20.317 15.238 3.019
535 23 1 1.0 20.317 15.238 3.623
536 23 1 1.0 20.317 15.238 4.226
537 23 1 1.0 20.317 15.238 4.830
538 23 1 1.0 20.317 15.238 5.434
539 23 1 1.0 20.317 15.238 6.038
540 23 1 1.0 20.317 15.238 6.642
541 23 1 -1.0 20.317 15.238 7.245
542 23 1 -1.0 20.317 15.238 7.849
543 23 1 -1.0 20.317 15.238 8.453
544 23 1 -1.0 20.317 15.238 9.057
545 23 1 -1.0 20.317 15.238 9.660
546 23 1 -1.0 20.317 15.238 10.264
547 23 1 -1.0 20.317 15.238 10.868
548 23 1 -1.0 20.317 15.238 11.472
549 23 1 -1.0 20.317 15.238 12.075
550 23 1 -1.0 20.317 15.238 12.679
551 23 1 -1.0 20.317 15.238 13.283
552 23 1 -1.0 20.317 15.238 13.887
553 24 1 1.0 25.397 15.238 0.000
554 24 1 1.0 25.397 15.238 0.604
555 24 1 1.0 25.397 15.238 1.208
556 24 1 1.0 25.397 15.238 1.811
557 24 1 1.0 25.397 15.238 2.415
558 24 1 1.0 25.397 15.238 3.019
559 24 1 1.0 25.397 15.238 3.623
560 24 1 1.0 25.397 15.238 4.226
561 24 1 1.0 25.397 15.238 4.830
562 24 1 1.0 25.397 15.238 5.434
563 24 1 1.0 25.397 15.238 6.038
564 24 1 1.0 25.397 15.238 6.642
565 24 1 -1.0 25.397 15.238 7.245
566 24 1 -1.0 25.397 15.238 7.849
567 24 1 -1.0 25.397 15.238 8.453
568 24 1 -1.0 25.397 15.238 9.057
569 24 1 -1.0 25.397 15.238 9.660
570 24 1 -1.0 25.397 15.238 10.264
571 24 1 -1.0 25.397 15.238 10.868
572 24 1 -1.0 25.397 15.238 11.472
573 24 1 -1.0 25.397 15.238 12.075
574 24 1 -1.0 25.397 15.238 12.679
575 24 1 -1.0 25.397 15.238 13.283
576 24 1 -1.0 25.397 15.238 13.887
577 25 1 1.0 0.000 20.317 0.000
578 25 1 1.0 0.000 20.317 0.604
579 25 1 1.0 0.000 20.317 1.208
580 25 1 1.0 0.000 20.317 1.811
581 25 1 1.0 0.000 20.317 2.415
582 25 1 1.0 0.000 20.317 3.019
583 25 1 1.0 0.000 20.317 3.623
584 25 1 1.0 0.000 20.317 4.226
585 25 1 1.0 0.000 20.317 4.830
586 25 1 1.0 0.000 20.317 5.434
587 25 1 1.0 0.000 20.317 6.038
588 25 1 1.0 0.000 20.317 6.642
589 25 1 -1.0 0.000 20.317 7.245
590 25 1 -1.0 0.000 20.317 7.849
591 25 1 -1.0 0.000 20.317 8.453
592 25 1 -1.0 0.000 20.317 9.057
593 25 1 -1.0 0.000 20.317 9.660
594 25 1 -1.0 0.000 20.317 10.264
595 25 1 -1.0 0.000 20.317 10.868
596 25 1 -1.0 0.000 20.317 11.472
597 25 1 -1.0 0.000 20.317 12.075
598 25 1 -1.0 0.000 20.317 12.679
599 25 1 -1.0 0.000 20.317 13.283
600 25 1 -1.0 0.000 20.317 13.887
601 26 1 1.0 5.079 20.317 0.000
602 26 1 1.0 5.079 20.317 0.604
603 26 1 1.0 5.079 20.317 1.208
604 26 1 1.0 5.079 20.317 1.811
605 26 1 1.0 5.079 20.317 2.415
606 26 1 1.0 5.079 20.317 3.019
607 26 1 1.0 5.079 20.317 3.623
608 26 1 1.0 5.079 20.317 4.226
609 26 1 1.0 5.079 20.317 4.830
610 26 1 1.0 5.079 20.317 5.434
611 26 1 1.0 5.079 20.317 6.038
612 26 1 1.0 5.079 20.317 6.642
613 26 1 -1.0 5.079 20.317 7.245
614 26 1 -1.0 5.079 20.317 7.849
615 26 1 -1.0 5.079 20.317 8.453
616 26 1 -1.0 5.079 20.317 9.057
617 26 1 -1.0 5.079 20.317 9.660
618 26 1 -1.0 5.079 20.317 10.264
619 26 1 -1.0 5.079 20.317 10.868
620 26 1 -1.0 5.079 20.317 11.472
621 26 1 -1.0 5.079 20.317 12.075
622 26 1 -1.0 5.079 20.317 12.679
623 26 1 -1.0 5.079 20.317 13.283
624 26 1 -1.0 5.079 20.317 13.887
625 27 1 1.0 10.159 20.317 0.000
626 27 1 1.0 10.159 20.317 0.604
627 27 1 1.0 10.159 20.317 1.208
628 27 1 1.0 10.159 20.317 1.811
629 27 1 1.0 10.159 20.317 2.415
630 27 1 1.0 10.159 20.317 3.019
631 27 1 1.0 10.159 20.317 3.623
632 27 1 1.0 10.159 20.317 4.226
633 27 1 1.0 10.159 20.317 4.830
634 27 1 1.0 10.159 20.317 5.434
635 27 1 1.0 10.159 20.317 6.038
636 27 1 1.0 10.159 20.317 6.642
637 27 1 -1.0 10.159 20.317 7.245
638 27 1 -1.0 10.159 20.317 7.849
639 27 1 -1.0 10.159 20.317 8.453
640 27 1 -1.0 10.159 20.317 9.057
641 27 1 -1.0 10.159 20.317 9.660
642 27 1 -1.0 10.159 20.317 10.264
643 27 1 -1.0 10.159 20.317 10.868
644 27 1 -1.0 10.159 20.317 11.472
645 27 1 -1.0 10.159 20.317 12.075
646 27 1 -1.0 10.159 20.317 12.679
647 27 1 -1.0 10.159 20.317 13.283
648 27 1 -1.0 10.159 20.317 13.887
649 28 1 1.0 15.238 20.317 0.000
650 28 1 1.0 15.238 20.317 0.604
651 28 1 1.0 15.238 20.317 1.208
652 28 1 1.0 15.238 20.317 1.811
653 28 1 1.0 15.238 20.317 2.415
654 28 1 1.0 15.238 20.317 3.019
655 28 1 1.0 15.238 20.317 3.623
656 28 1 1.0 15.238 20.317 4.226
657 28 1 1.0 15.238 20.317 4.830
658 28 1 1.0 15.238 20.317 5.434
659 28 1 1.0 15.238 20.317 6.038
660 28 1 1.0 15.238 20.317 6.642
661 28 1 -1.0 15.238 20.317 7.245
662 28 1 -1.0 15.238 20.317 7.849
663 28 1 -1.0 15.238 20.317 8.453
664 28 1 -1.0 15.238 20.317 9.057
665 28 1 -1.0 15.238 20.317 9.660
666 28 1 -1.0 15.238 20.317 10.264
667 28 1 -1.0 15.238 20.317 10.868
668 28 1 -1.0 15.238 20.317 11.472
669 28 1 -1.0 15.238 20.317 12.075
670 28 1 -1.0 15.238 20.317 12.679
671 28 1 -1.0 15.238 20.317 13.283
672 28 1 -1.0 15.238 20.317 13.887
673 29 1 1.0 20.317 20.317 0.000
674 29 1 1.0 20.317 20.317 0.604
675 29 1 1.0 20.317 20.317 1.208
676 29 1 1.0 20.317 20.317 1.811
677 29 1 1.0 20.317 20.317 2.415
678 29 1 1.0 20.317 20.317 3.019
679 29 1 1.0 20.317 20.317 3.623
680 29 1 1.0 20.317 20.317 4.226
681 29 1 1.0 20.317 20.317 4.830
682 29 1 1.0 20.317 20.317 5.434
683 29 1 1.0 20.317 20.317 6.038
684 29 1 1.0 20.317 20.317 6.642
685 29 1 -1.0 20.317 20.317 7.245
686 29 1 -1.0 20.317 20.317 7.849
687 29 1 -1.0 20.317 20.317 8.453
688 29 1 -1.0 20.317 20.317 9.057
689 29 1 -1.0 20.317 20.317 9.660
690 29 1 -1.0 20.317 20.317 10.264
691 29 1 -1.0 20.317 20.317 10.868
692 29 1 -1.0 20.317 20.317 11.472
693 29 1 -1.0 20.317 20.317 12.075
694 29 1 -1.0 20.317 20.317 12.679
695 29 1 -1.0 20.317 20.317 13.283
696 29 1 -1.0 20.317 20.317 13.887
697 30 1 1.0 25.397 20.317 0.000
698 30 1 1.0 25.397 20.317 0.604
699 30 1 1.0 25.397 20.317 1.208
700 30 1 1.0 25.397 20.317 1.811
701 30 1 1.0 25.397 20.317 2.415
702 30 1 1.0 25.397 20.317 3.019
703 30 1 1.0 25.397 20.317 3.623
704 30 1 1.0 25.397 20.317 4.226
705 30 1 1.0 25.397 20.317 4.830
706 30 1 1.0 25.397 20.317 5.434
707 30 1 1.0 25.397 20.317 6.038
708 30 1 1.0 25.397 20.317 6.642
709 30 1 -1.0 25.397 20.317 7.245
710 30 1 -1.0 25.397 20.317 7.849
711 30 1 -1.0 25.397 20.317 8.453
712 30 1 -1.0 25.397 20.317 9.057
713 30 1 -1.0 25.397 20.317 9.660
714 30 1 -1.0 25.397 20.317 10.264
715 30 1 -1.0 25.397 20.317 10.868
716 30 1 -1.0 25.397 20.317 11.472
717 30 1 -1.0 25.397 20.317 12.075
718 30 1 -1.0 25.397 20.317 12.679
719 30 1 -1.0 25.397 20.317 13.283
720 30 1 -1.0 25.397 20.317 13.887
721 31 1 1.0 0.000 25.397 0.000
722 31 1 1.0 0.000 25.397 0.604
723 31 1 1.0 0.000 25.397 1.208
724 31 1 1.0 0.000 25.397 1.811
725 31 1 1.0 0.000 25.397 2.415
726 31 1 1.0 0.000 25.397 3.019
727 31 1 1.0 0.000 25.397 3.623
728 31 1 1.0 0.000 25.397 4.226
729 31 1 1.0 0.000 25.397 4.830
730 31 1 1.0 0.000 25.397 5.434
731 31 1 1.0 0.000 25.397 6.038
732 31 1 1.0 0.000 25.397 6.642
733 31 1 -1.0 0.000 25.397 7.245
734 31 1 -1.0 0.000 25.397 7.849
735 31 1 -1.0 0.000 25.397 8.453
736 31 1 -1.0 0.000 25.397 9.057
737 31 1 -1.0 0.000 25.397 9.660
738 31 1 -1.0 0.000 25.397 10.264
739 31 1 -1.0 0.000 25.397 10.868
740 31 1 -1.0 0.000 25.397 11.472
741 31 1 -1.0 0.000 25.397 12.075
742 31 1 -1.0 0.000 25.397 12.679
743 31 1 -1.0 0.000 25.397 13.283
744 31 1 -1.0 0.000 25.397 13.887
745 32 1 1.0 5.079 25.397 0.000
746 32 1 1.0 5.079 25.397 0.604
747 32 1 1.0 5.079 25.397 1.208
748 32 1 1.0 5.079 25.397 1.811
749 32 1 1.0 5.079 25.397 2.415
750 32 1 1.0 5.079 25.397 3.019
751 32 1 1.0 5.079 25.397 3.623
752 32 1 1.0 5.079 25.397 4.226
753 32 1 1.0 5.079 25.397 4.830
754 32 1 1.0 5.079 25.397 5.434
755 32 1 1.0 5.079 25.397 6.038
756 32 1 1.0 5.079 25.397 6.642
757 32 1 -1.0 5.079 25.397 7.245
758 32 1 -1.0 5.079 25.397 7.849
759 32 1 -1.0 5.079 25.397 8.453
760 32 1 -1.0 5.079 25.397 9.057
761 32 1 -1.0 5.079 25.397 9.660
762 32 1 -1.0 5.079 25.397 10.264
763 32 1 -1.0 5.079 25.397 10.868
764 32 1 -1.0 5.079 25.397 11.472
765 32 1 -1.0 5.079 25.397 12.075
766 32 1 -1.0 5.079 25.397 12.679
767 32 1 -1.0 5.079 25.397 13.283
768 32 1 -1.0 5.079 25.397 13.887
769 33 1 1.0 10.159 25.397 0.000
770 33 1 1.0 10.159 25.397 0.604
771 33 1 1.0 10.159 25.397 1.208
772 33 1 1.0 10.159 25.397 1.811
773 33 1 1.0 10.159 25.397 2.415
774 33 1 1.0 10.159 25.397 3.019
775 33 1 1.0 10.159 25.397 3.623
776 33 1 1.0 10.159 25.397 4.226
777 33 1 1.0 10.159 25.397 4.830
778 33 1 1.0 10.159 25.397 5.434
779 33 1 1.0 10.159 25.397 6.038
780 33 1 1.0 10.159 25.397 6.642
781 33 1 -1.0 10.159 25.397 7.245
782 33 1 -1.0 10.159 25.397 7.849
783 33 1 -1.0 10.159 25.397 8.453
784 33 1 -1.0 10.159 25.397 9.057
785 33 1 -1.0 10.159 25.397 9.660
786 33 1 -1.0 10.159 25.397 10.264
787 33 1 -1.0 10.159 25.397 10.868
788 33 1 -1.0 10.159 25.397 11.472
789 33 1 -1.0 10.159 25.397 12.075
790 33 1 -1.0 10.159 25.397 12.679
791 33 1 -1.0 10.159 25.397 13.283
792 33 1 -1.0 10.159 25.397 13.887
793 34 1 1.0 15.238 25.397 0.000
794 34 1 1.0 15.238 25.397 0.604
795 34 1 1.0 15.238 25.397 1.208
796 34 1 1.0 15.238 25.397 1.811
797 34 1 1.0 15.238 25.397 2.415
798 34 1 1.0 15.238 25.397 3.019
799 34 1 1.0 15.238 25.397 3.623
800 34 1 1.0 15.238 25.397 4.226
801 34 1 1.0 15.238 25.397 4.830
802 34 1 1.0 15.238 25.397 5.434
803 34 1 1.0 15.238 25.397 6.038
804 34 1 1.0 15.238 25.397 6.642
805 34 1 -1.0 15.238 25.397 7.245
806 34 1 -1.0 15.238 25.397 7.849
807 34 1 -1.0 15.238 25.397 8.453
808 34 1 -1.0 15.238 25.397 9.057
809 34 1 -1.0 15.238 25.397 9.660
810 34 1 -1.0 15.238 25.397 10.264
811 34 1 -1.0 15.238 25.397 10.868
812 34 1 -1.0 15.238 25.397 11.472
813 34 1 -1.0 15.238 25.397 12.075
814 34 1 -1.0 15.238 25.397 12.679
815 34 1 -1.0 15.238 25.397 13.283
816 34 1 -1.0 15.238 25.397 13.887
817 35 2 1.0 2.540 2.540 16.906
818 35 2 1.0 2.540 2.540 17.509
819 35 2 1.0 2.540 2.540 18.113
820 35 2 1.0 2.540 2.540 18.717
821 35 2 1.0 2.540 2.540 19.321
822 35 2 1.0 2.540 2.540 19.925
823 35 2 1.0 2.540 2.540 20.528
824 35 2 1.0 2.540 2.540 21.132
825 35 2 1.0 2.540 2.540 21.736
826 35 2 1.0 2.540 2.540 22.340
827 35 2 1.0 2.540 2.540 22.943
828 35 2 1.0 2.540 2.540 23.547
829 35 2 -1.0 2.540 2.540 24.151
830 35 2 -1.0 2.540 2.540 24.755
831 35 2 -1.0 2.540 2.540 25.358
832 35 2 -1.0 2.540 2.540 25.962
833 35 2 -1.0 2.540 2.540 26.566
834 35 2 -1.0 2.540 2.540 27.170
835 35 2 -1.0 2.540 2.540 27.774
836 35 2 -1.0 2.540 2.540 28.377
837 35 2 -1.0 2.540 2.540 28.981
838 35 2 -1.0 2.540 2.540 29.585
839 35 2 -1.0 2.540 2.540 30.189
840 35 2 -1.0 2.540 2.540 30.792
841 36 2 1.0 7.619 2.540 16.906
842 36 2 1.0 7.619 2.540 17.509
843 36 2 1.0 7.619 2.540 18.113
844 36 2 1.0 7.619 2.540 18.717
845 36 2 1.0 7.619 2.540 19.321
846 36 2 1.0 7.619 2.540 19.925
847 36 2 1.0 7.619 2.540 20.528
848 36 2 1.0 7.619 2.540 21.132
849 36 2 1.0 7.619 2.540 21.736
850 36 2 1.0 7.619 2.540 22.340
851 36 2 1.0 7.619 2.540 22.943
852 36 2 1.0 7.619 2.540 23.547
853 36 2 -1.0 7.619 2.540 24.151
854 36 2 -1.0 7.619 2.540 24.755
855 36 2 -1.0 7.619 2.540 25.358
856 36 2 -1.0 7.619 2.540 25.962
857 36 2 -1.0 7.619 2.540 26.566
858 36 2 -1.0 7.619 2.540 27.170
859 36 2 -1.0 7.619 2.540 27.774
860 36 2 -1.0 7.619 2.540 28.377
861 36 2 -1.0 7.619 2.540 28.981
862 36 2 -1.0 7.619 2.540 29.585
863 36 2 -1.0 7.619 2.540 30.189
864 36 2 -1.0 7.619 2.540 30.792
865 37 2 1.0 12.698 2.540 16.906
866 37 2 1.0 12.698 2.540 17.509
867 37 2 1.0 12.698 2.540 18.113
868 37 2 1.0 12.698 2.540 18.717
869 37 2 1.0 12.698 2.540 19.321
870 37 2 1.0 12.698 2.540 19.925
871 37 2 1.0 12.698 2.540 20.528
872 37 2 1.0 12.698 2.540 21.132
873 37 2 1.0 12.698 2.540 21.736
874 37 2 1.0 12.698 2.540 22.340
875 37 2 1.0 12.698 2.540 22.943
876 37 2 1.0 12.698 2.540 23.547
877 37 2 -1.0 12.698 2.540 24.151
878 37 2 -1.0 12.698 2.540 24.755
879 37 2 -1.0 12.698 2.540 25.358
880 37 2 -1.0 12.698 2.540 25.962
881 37 2 -1.0 12.698 2.540 26.566
882 37 2 -1.0 12.698 2.540 27.170
883 37 2 -1.0 12.698 2.540 27.774
884 37 2 -1.0 12.698 2.540 28.377
885 37 2 -1.0 12.698 2.540 28.981
886 37 2 -1.0 12.698 2.540 29.585
887 37 2 -1.0 12.698 2.540 30.189
888 37 2 -1.0 12.698 2.540 30.792
889 38 2 1.0 17.778 2.540 16.906
890 38 2 1.0 17.778 2.540 17.509
891 38 2 1.0 17.778 2.540 18.113
892 38 2 1.0 17.778 2.540 18.717
893 38 2 1.0 17.778 2.540 19.321
894 38 2 1.0 17.778 2.540 19.925
895 38 2 1.0 17.778 2.540 20.528
896 38 2 1.0 17.778 2.540 21.132
897 38 2 1.0 17.778 2.540 21.736
898 38 2 1.0 17.778 2.540 22.340
899 38 2 1.0 17.778 2.540 22.943
900 38 2 1.0 17.778 2.540 23.547
901 38 2 -1.0 17.778 2.540 24.151
902 38 2 -1.0 17.778 2.540 24.755
903 38 2 -1.0 17.778 2.540 25.358
904 38 2 -1.0 17.778 2.540 25.962
905 38 2 -1.0 17.778 2.540 26.566
906 38 2 -1.0 17.778 2.540 27.170
907 38 2 -1.0 17.778 2.540 27.774
908 38 2 -1.0 17.778 2.540 28.377
909 38 2 -1.0 17.778 2.540 28.981
910 38 2 -1.0 17.778 2.540 29.585