LAMMPS data file via write_data, version 27 Jun 2024, timestep = 100000, units = lj

3264 atoms
2 atom types
2992 bonds
1 bond types

0 32 xlo xhi
0 32 ylo yhi
0 32 zlo zhi

Masses

1 1
2 1

Pair Coeffs # lj/cut

1 1 1
2 1 1

Bond Coeffs # fene

1 30 1.5 1 1

Atoms # molecular

2659 222 2 13.451348060889202 0.9577332549914747 1.4659042855943214 0 0 1
2660 222 2 12.719408718814769 1.0692619142932862 0.8949734574879978 0 0 1
2661 222 2 12.120677130150671 1.8125604554639387 1.0369576499959048 0 0 1
2932 245 2 15.431124618478252 2.73229549399402 0.37282502556879377 0 0 1
2644 221 2 16.64968204808883 3.3802294790822263 0.41792803534550127 0 0 1
2645 221 2 17.64896132065768 3.4114135291722687 0.5642778523115304 0 0 1
2280 190 2 6.570909278419271 4.689617730105459 1.1809972110416116 0 0 1
2276 190 2 9.796147567438645 4.238111137459684 0.20123033554250364 0 0 1
2277 190 2 8.905451360689067 4.017840770639759 0.46843953541336353 0 0 1
2275 190 2 10.169260096732934 4.047666497812167 31.33267683348524 0 0 0
2270 190 2 11.862751436606615 4.403410039253824 31.804779177001834 0 0 0
3129 261 2 11.468759347150462 2.866610868257281 1.5653298098449484 0 0 1
3126 261 2 12.133924594586716 3.1224676647367455 31.413885078860027 0 0 0
3125 261 2 12.400483022550125 3.9130475420514164 30.862280763753812 0 0 0
3127 261 2 12.720771969906055 2.7631286779041533 0.14519113401123246 0 0 1
3128 261 2 12.117341641248073 2.8599561423984445 0.9034358752231085 0 0 1
3132 261 2 12.453413516818435 3.968360236037568 0.7026212828858536 0 0 1
2801 234 2 13.740538130818607 3.5494945365813373 0.3816271110212969 0 0 1
2803 234 2 13.918606890076935 5.063784718924246 1.1141244623877968 0 0 1
2931 245 2 14.586366625349067 2.589401946718929 31.98511929848039 0 0 0
2570 215 2 16.234077883656468 4.46018589632007 0.4815838710780411 0 0 1
2569 215 2 15.923026431332897 4.227851288084312 1.3411433001131576 0 0 1
2571 215 2 15.362432238768806 3.9935305385509547 0.42596097505840674 0 0 1
2647 221 2 17.81296895004489 4.4786117426145475 1.0514429965327206 0 0 1
2646 221 2 17.309590659755624 4.266633408587448 0.27330997441868055 0 0 1
2650 221 2 18.587016433219187 4.325681609330349 0.188226798026569 0 0 1
2685 224 2 20.454741473131183 5.218218969148174 0.7282500192558591 0 0 1
2684 224 2 19.823878824663243 4.506526638138902 0.8444835252896788 0 0 1
2861 239 2 4.162830581281441 6.853883604482938 1.2838741879511124 0 0 1
1212 101 1 5.292253710614046 4.660830614460428 1.9600903468791693 0 0 0
2421 202 2 7.8120570133226375 6.034933885392977 0.7247484045756701 0 0 1
2279 190 2 7.5445236020516875 4.711127507622464 1.3314663814172463 0 0 1
3116 260 2 9.617050367099012 4.846600304545519 30.936143159542404 0 0 0
3115 260 2 10.244897418426156 5.029151619343618 31.712096753998473 0 0 0
3117 260 2 8.817249146907027 4.472193993223646 31.384622626887026 0 0 0
3118 260 2 9.07856902975047 5.172271442764029 31.887361877110756 0 0 0
3114 260 2 10.406076654313392 4.911581795876261 0.6967335822544012 0 0 1
3113 260 2 10.698142207355236 5.862640631150106 0.7308776716497373 0 0 1
2269 190 2 11.542158305297255 4.857898925974989 0.5461927341539435 0 0 1
3121 261 2 13.259573249972911 5.727025351921851 0.5061646700862462 0 0 1
2363 197 2 11.8023053662809 5.881347063024407 0.9532065858716419 0 0 1
2915 243 2 14.040270278894514 6.306144985801584 0.7536483350926817 0 0 1
2802 234 2 13.909812790434195 4.533388084472088 0.3640711327476266 0 0 1
2914 243 2 14.814100112978911 5.823664708145064 1.1044563088816561 0 0 1
2912 243 2 15.876948663095217 5.451091701220389 1.1176742310170522 0 0 1
2913 243 2 15.268647336544314 5.290920930433574 0.37838882616220526 0 0 1
2911 243 2 16.792010578421756 5.172855681108063 0.9800852923400762 0 0 1
3143 262 2 17.624504605925612 5.272874249906137 30.890738562790588 0 0 0
3142 262 2 17.42412946253248 5.885555661568169 31.68811786079092 0 0 0
2649 221 2 18.372077634247457 5.160852630295508 31.646742608772755 0 0 0
2652 221 2 19.186202585099057 4.9765830633665145 1.6475129262466996 0 0 1
2863 239 2 5.288736913097459 6.372675980759208 0.2982551239041617 0 0 1
2862 239 2 4.3621638778691665 6.479202465613792 0.4248233083062832 0 0 1
313 27 1 5.752300350474299 7.008949278923821 30.261857764795128 0 0 -1
314 27 1 5.050834673377929 6.461283231747827 30.681412554774845 0 0 -1
2864 239 2 4.997717062918024 5.38914839595439 0.2763388020068287 0 0 1
2866 239 2 6.230149608064044 6.409131287607013 0.5529820231408628 0 0 1
169 15 1 5.502304574831156 7.123997450850974 1.049018651297167 0 0 0
2865 239 2 5.80427475341668 5.561366641516731 0.7004716464767409 0 0 1
2423 202 2 7.259305131751283 5.994171311924619 30.997736191884226 0 0 0
1545 129 1 6.201763173507956 6.370356128627736 31.23166301923581 0 0 -1
2390 200 2 7.658914097663444 7.104867081550938 0.3203700938942763 0 0 1
2422 202 2 7.17670086504166 6.14608431771059 31.997540362082947 0 0 0
2420 202 2 8.549432315674645 6.112623125244581 0.06313665066221869 0 0 1
1888 158 2 9.485217059927354 7.073392722049053 31.706716117119683 0 0 0
1889 158 2 9.877030344599644 7.055039047502641 0.625605166739295 0 0 1
1890 158 2 9.868591642159414 6.187708753368321 0.2506429447551833 0 0 1
943 79 1 9.290095775118884 7.233087833147948 1.8492814253038505 0 0 0
3111 260 2 11.366004576916575 6.781672645036283 31.270852231903408 0 0 0
2364 197 2 12.161256821700329 5.8647649637906145 1.736454831371086 0 0 1
2377 199 2 12.683563272803564 8.680518638638569 2.460643042883299 0 0 1
2953 247 2 11.374638216530746 6.858187532619831 1.381839031603334 0 0 1
2362 197 2 12.30585832161917 5.737518179828902 0.15039464853443937 0 0 1
2833 237 2 13.340293641605003 7.067730343373885 0.2924316985668832 0 0 1
2595 217 2 14.454381643301904 7.4859927485396565 2.22700646625568 0 0 1
3136 262 2 15.285873077001183 6.659695792097621 0.27706836982284794 0 0 1
2351 196 2 15.796790226502008 6.523158488258616 1.219428989215354 0 0 1
3135 262 2 14.64600544655566 7.3165823475262215 0.5377356905044255 0 0 1
2596 217 2 14.295328383088892 8.065494815226675 1.4452933797505336 0 0 1
2352 196 2 16.66968931790953 6.241642307674385 1.4625918587255378 0 0 1
2350 196 2 16.084792291304733 7.320872040587349 1.7015188241616392 0 0 1
2461 206 2 16.96404018661295 7.370720850850807 1.0998173723223639 0 0 1
2333 195 2 18.004165839439608 7.2659700192154215 1.3942004771059744 0 0 1
3029 253 2 18.181265857389565 6.114662515876595 30.57823188387309 0 0 0
2688 224 2 19.338934899318932 5.933316543331999 1.0144851811990239 0 0 1
2331 195 2 18.6721242785811 6.447827017231645 1.8993743933214842 0 0 1
319 27 1 3.4474636548465276 6.703543444627239 0.047491503791568766 0 0 0
317 27 1 4.432658022794627 6.862328941505899 31.418965489279973 0 0 -1
315 27 1 4.6796426749282585 7.365628548036495 30.454025645836815 0 0 -1
320 27 1 3.8617870866390382 7.546816867502074 0.021575542869707854 0 0 0
321 27 1 4.649863539371418 7.48946549564223 0.5592523213088629 0 0 0
322 27 1 5.296495437474724 8.13724560650083 0.258879738438198 0 0 0
1202 101 1 5.610286924111509 7.7838768034926265 1.9436021826811112 0 0 0
2867 239 2 6.09315038822997 7.288741021248114 0.18959535304618808 0 0 1
1169 98 1 7.33315068944222 8.300858607139503 0.44398157021140333 0 0 0
1168 98 1 7.27405936497323 9.263680400192637 0.34378860521350185 0 0 0
941 79 1 8.150358732609618 7.00389488162015 1.613714481309544 0 0 0
1170 98 1 6.981232003590498 8.817484615334887 1.2363447590604943 0 0 0
1171 98 1 7.74119606815685 9.292858382265578 1.519905676178286 0 0 0
2389 200 2 7.50774485987027 7.076135203712631 31.372885560394312 0 0 0
942 79 1 8.751429361044673 7.45964547303529 1.0723659033710216 0 0 0
3109 260 2 10.623927333175521 7.610751426496502 31.813218064219555 0 0 0
346 29 1 9.72837367530977 7.924492803710761 1.2562106210657231 0 0 0
345 29 1 10.549616406532287 7.899233780887228 1.873069362582845 0 0 0
2954 247 2 11.078436866952318 7.295995105760444 0.577868026797304 0 0 1
2381 199 2 12.619392764640986 6.406877127206661 0.8885293737405259 0 0 1
2955 247 2 11.393824785684624 7.98056073606692 1.1149269290574915 0 0 1
2378 199 2 12.353054581083036 8.311114514432377 1.6510083990586168 0 0 1
2836 237 2 12.909679037454115 8.963429292209183 1.1849578960420428 0 0 1
2379 199 2 12.913255041156148 7.931893669213174 0.9148023455185097 0 0 1
2835 237 2 13.826271046068547 8.831014848481491 0.8030101810487168 0 0 1
3173 265 2 14.349268717454637 9.361707559533539 1.8512557370403238 0 0 1
2597 217 2 15.240516418692485 7.954322323657064 1.4521476983870953 0 0 1
2600 217 2 14.97414397894972 8.854141364839958 0.745927723192573 0 0 1
2598 217 2 16.155873427467622 8.358062380015316 1.2993398352400538 0 0 1
2463 206 2 17.672973446208715 7.469010879097348 0.173500762974226 0 0 1
2464 206 2 17.07641679982478 8.226557659999564 0.44495045242231185 0 0 1
2335 195 2 17.55724870904874 8.400799358784983 1.4914530316077812 0 0 1
2334 195 2 18.26048415185443 7.986354640525705 1.933952832371757 0 0 1
2332 195 2 18.934695309369275 7.013602326686836 1.153550266811135 0 0 1
2337 195 2 18.214084698665722 9.232519148694422 1.0273960586669064 0 0 1
2218 185 2 18.620893306153967 6.902015451980853 0.13913887781721723 0 0 1
2217 185 2 19.153408708081262 7.7547274590789295 0.435741031360484 0 0 1
318 27 1 3.5830726741770778 7.08599421538451 31.059343592239685 0 0 -1
3051 255 2 3.925812240232513 8.78058356933862 0.22442009617303393 0 0 1
447 38 1 4.579705179531459 8.652914879247344 1.0480873809636346 0 0 0
450 38 1 1.9157620523763754 8.219300259920253 0.6783732731398976 0 0 0
3050 255 2 4.73461724921554 9.259876977755205 0.04250071107238339 0 0 1
445 38 1 6.228633464695338 8.084375145684161 0.9054326008388218 0 0 0
446 38 1 5.527930657027331 8.770703339422372 1.0183325255817988 0 0 0
324 27 1 6.49245243296186 8.226095766740482 31.8197343663339 0 0 -1
3189 266 2 6.462252365014871 10.659593323901884 0.5161721998302155 0 0 1
1167 98 1 7.650683696062012 10.030552219917846 0.7476271626854241 0 0 0
1172 98 1 8.625291085881571 8.953834586831592 1.662046299794593 0 0 0
3186 266 2 7.804516371100614 10.60111047790403 31.764961729116898 0 0 0
1166 98 1 8.530589796380498 9.634022273375459 0.8327228854445533 0 0 0
1173 98 1 9.304441565721508 8.87776016794797 1.0210602991218811 0 0 0
1174 98 1 9.693652421307904 9.748713132591906 0.9080536536203677 0 0 0
3182 266 2 10.730211960767885 10.073875604230153 0.8763588985549232 0 0 1
3181 266 2 10.55592598622373 9.103631725378245 0.9114865821844409 0 0 1
2956 247 2 11.695297477063736 8.93331931512736 1.0462032481186274 0 0 1
2957 247 2 12.242790421516958 8.498254723981198 0.35685201993083254 0 0 1
1441 121 1 13.12278636070224 9.914642788756769 0.7315300980011299 0 0 0
2471 206 2 14.0439163686046 10.24790670966568 0.3060202166881008 0 0 1
2602 217 2 15.459606489938361 10.084578810044945 1.795801581747568 0 0 1
2601 217 2 15.504996944879924 9.249534837596602 1.3968506965362133 0 0 1
2339 195 2 19.154781665835355 8.639174155248227 1.328964067228773 0 0 1
2338 195 2 18.468450274084933 8.957289833727174 1.889689934610502 0 0 1
2465 206 2 16.956243970344406 9.011876007371677 0.9405932123595149 0 0 1
2606 218 2 19.45007425563893 10.059066191913946 0.282110002323875 0 0 1
823 69 1 18.990979014619754 10.173900292125683 2.2354803725513173 0 0 0
2605 218 2 19.26072484584096 9.092938256128189 0.2413893152977619 0 0 1
2610 218 2 20.083091029371477 9.434935693164645 0.8214923744184651 0 0 1
787 66 1 2.9855362449463976 10.204756953911128 0.31082177207433076 0 0 0
788 66 1 3.645462439985788 9.760779962558443 0.8741727227418347 0 0 0
783 66 1 5.274453310050173 11.182980316207438 31.005804170297452 0 0 -1
786 66 1 3.475167049729066 10.364245658720609 31.444355176959814 0 0 -1
3192 266 2 5.268517689737978 12.1098229084887 31.44284250073411 0 0 0
784 66 1 4.692264299749949 11.193378631926548 31.72684755964867 0 0 -1
3190 266 2 6.1362427984013905 11.58898983795702 0.5089662187722551 0 0 1
625 53 1 7.856117382205294 12.021886249544549 0.0784653751214401 0 0 0
3185 266 2 8.423993571504885 11.098794374772254 0.40550520622682323 0 0 1
958 80 1 7.979141127140182 10.313896979570847 2.063388651542031 0 0 0
959 80 1 7.852337865109612 10.822648750772547 1.2849036618533962 0 0 0
3184 266 2 9.148447602468098 10.6083071034575 0.8339778890558398 0 0 1
3183 266 2 10.103824507270597 10.736844718650982 0.5488889191415859 0 0 1
2785 233 2 9.270314430799509 10.804391587967906 31.66872073413788 0 0 0
674 57 1 11.028244316398537 10.36232399786142 31.754534155548363 0 0 -1
1443 121 1 12.233314448941103 10.549823928761741 0.5196600636074136 0 0 0
1442 121 1 12.90685957375467 10.703042501986767 1.1827811778738724 0 0 0
2675 223 2 12.75963875490826 9.883181089295897 31.37643398751907 0 0 0
2603 217 2 14.62715534033722 10.60387148231054 1.9241114901082437 0 0 1
2604 217 2 13.608900987201366 10.581873975630415 2.0442002128208343 0 0 1
666 56 1 14.664869251126678 11.166176310353013 0.3227950865096976 0 0 0
2470 206 2 14.966519732909326 10.184720818350321 0.5840551451795947 0 0 1
2022 169 2 15.337383519173327 11.272776545238289 1.5670836044025118 0 0 1
2026 169 2 16.440664806586717 11.432729666030792 0.7551619662168021 0 0 1
2468 206 2 16.514237390642112 10.12281880013425 0.9902327817624464 0 0 1
2469 206 2 15.81414702904505 10.613934553489798 0.6009803584277651 0 0 1
2028 169 2 17.95372585604555 11.835556293136063 1.1082054112851307 0 0 1
2467 206 2 17.462725240342643 10.44565064118108 1.0671531181442964 0 0 1
824 69 1 18.457572182383053 10.488054146354969 1.4647703038561795 0 0 0
825 69 1 18.982390699630532 11.051348041013663 0.9348438045796743 0 0 0
2608 218 2 19.12899060779306 9.701377050181245 1.195200443927224 0 0 1
2609 218 2 19.907632406132336 9.875679532062104 1.6224003613649105 0 0 1
827 69 1 19.41842640276248 12.577583448809714 0.16491129943333338 0 0 0
1349 113 1 4.130168378282282 11.001645950738117 2.1488996326247225 0 0 0
1363 114 1 4.67001980208984 12.951024270240055 31.653487742625707 0 0 -1
1366 114 1 5.4594378105539105 12.7221750067221 1.2335126430695054 0 0 0
1365 114 1 4.609009489363483 12.8412409309229 0.7616244174324579 0 0 0
3191 266 2 5.242801768603142 11.935760020046152 0.3485734784142658 0 0 1
1253 105 1 7.582677628746041 12.90043566450948 0.7676526149329832 0 0 0
1252 105 1 6.662611638512545 12.929610529172612 1.2039466910130583 0 0 0
960 80 1 7.85113617806154 11.574354974418952 1.8760388355024213 0 0 0
1258 105 1 7.444583693249636 14.684484466208078 0.06782464638204397 0 0 0
1586 133 1 8.792453766016603 11.738858655412498 31.557773964456754 0 0 -1
1257 105 1 7.884692735602047 13.93986250613765 0.4312447661485265 0 0 0
676 57 1 10.608894444892051 11.470204430962134 1.0615730909064214 0 0 0
1587 133 1 9.341023858526444 11.683074010513801 0.3920334359494669 0 0 0
1588 133 1 9.903062531707599 11.580947940042734 31.64801646834632 0 0 -1
675 57 1 11.100662451092603 11.10224334849896 0.32433626140464206 0 0 0
1039 87 1 10.728446442255466 12.507328680551293 1.2312629135769302 0 0 0
661 56 1 11.796824119713083 11.915119752948481 0.500584311986876 0 0 0
1040 87 1 11.696031339000761 12.819741542582344 1.1129611309533909 0 0 0
1041 87 1 12.284646958418369 12.810392014142824 0.3657338485075925 0 0 0
1236 103 1 11.454079984830939 11.829932755893255 1.609920449871669 0 0 0
662 56 1 12.671356290829415 11.703928025850201 0.833999038307141 0 0 0
1868 156 2 13.24131340243902 11.673431852724418 1.8661272400967301 0 0 1
667 56 1 13.987543301598786 11.039888014448898 0.9516351994513379 0 0 0
668 56 1 13.675091360402982 11.840602241270442 0.4679044024261772 0 0 0
2455 205 2 14.889698934346843 12.6939568419064 1.645810278734493 0 0 1
854 72 1 13.471950375109317 12.804481699543798 0.07972557094573043 0 0 0
672 56 1 15.362719660701048 12.645065110334759 0.26542537940724553 0 0 0
2025 169 2 16.746377543478914 12.108738460649153 1.3357855982627331 0 0 1
2487 208 2 18.214191865243656 12.629004085673289 0.34474570725443243 0 0 1
826 69 1 18.851212275757028 11.847323772772276 0.4211964367969537 0 0 0
3249 271 2 18.38954890608622 11.429371094025733 2.237992733895512 0 0 1
828 69 1 18.928761654541965 12.497870395513527 31.380242284826036 0 0 -1
1767 148 2 20.523478843631217 11.835799563773948 2.9637063359991123 0 0 1
1351 113 1 4.420931488372772 11.382755933338622 0.7820739711714146 0 0 0
1352 113 1 4.417759500768495 12.018998570636576 1.4759004862891159 0 0 0
1367 114 1 5.557397496437214 13.691248418589451 0.9982440853556156 0 0 0
1361 114 1 4.4446809938430505 14.02713960875649 0.9329205257147983 0 0 0
1360 114 1 4.718175590766732 14.939296435383893 0.8687785051321957 0 0 0
1362 114 1 4.81862308780854 13.868486560271664 0.061651194329323374 0 0 0
1368 114 1 5.558272928967717 13.121128756449945 0.28547588357429854 0 0 0
1359 114 1 5.21961646686499 14.922053432773824 0.02330739138626986 0 0 0
1259 105 1 6.700804151658407 15.294095853638984 0.45799743091455997 0 0 0
1585 133 1 8.746481399804779 12.58428743495656 31.987472895294754 0 0 -1
1395 117 1 8.755909223588038 15.28756889629008 0.8565381110181645 0 0 0
1477 124 1 9.66581696108433 13.371499457282557 0.046623113605044765 0 0 0
1478 124 1 9.87887170810911 12.593692658028289 0.5980885526736508 0 0 0
1037 87 1 11.603339714154906 13.887768123428165 0.7307128221780277 0 0 0
1038 87 1 10.94849092678086 13.194845814373616 0.5577214177746259 0 0 0
1035 87 1 10.18641459371826 13.726898082946546 1.0164801561960908 0 0 0
1871 156 2 13.244076882442128 13.809685480943992 1.6561961031846941 0 0 1
1870 156 2 13.56024166467457 12.987757173538023 1.2003626407751111 0 0 1
858 72 1 13.057626280167609 14.840239812825597 0.005639175582835776 0 0 0
412 35 1 14.862997465611086 13.926615162162603 1.9558546747989816 0 0 0
920 77 1 16.096855361734413 15.021972364456818 1.3518249007515188 0 0 0
413 35 1 15.213854258877456 14.073470662737275 1.0631362518440726 0 0 0
2485 208 2 16.473795492126833 12.622853068484172 0.40967082686521794 0 0 1
2451 205 2 17.29752111776659 13.98083487245952 0.9801515846266358 0 0 1
2762 231 2 17.501822989115794 13.662838552656764 31.69492866782592 0 0 0
2488 208 2 18.28526340599793 13.122765591605969 1.1201236031845003 0 0 1
2490 208 2 19.30690612625062 13.359670099806339 0.9242222340282957 0 0 1
2492 208 2 18.5486215336127 13.87589889402301 1.772926525380858 0 0 1
2491 208 2 19.209993187116382 14.26035791112197 1.3014453889705468 0 0 1
2489 208 2 18.99273713642965 12.428205892617786 1.1567262293193494 0 0 1
1765 148 2 20.118556677237322 12.728484947867267 1.3397780513346007 0 0 1
1766 148 2 20.39489872882992 12.449311821325514 2.230037686576229 0 0 1
1397 117 1 8.36333520464126 14.955147833429626 31.602191355065223 0 0 -1
1465 123 1 5.764746906651882 15.6377495292921 1.1271403448186659 0 0 0
1475 123 1 8.221142485674209 16.208910161421475 31.346755729881597 0 0 -1
1474 123 1 7.463647912570564 15.66788929422711 31.550472255421 0 0 -1
1476 123 1 8.699668559542062 16.683874650258467 30.625154863286667 0 0 -1
1394 117 1 9.57792043564656 15.532159158675645 0.46580934062125506 0 0 0
1575 132 1 8.603294595556381 15.142078886557808 2.263024685418815 0 0 0
1036 87 1 10.985524081972917 13.997409417598142 1.4828064518369537 0 0 0
558 47 1 10.817165476818092 15.433937529181394 0.9529859925876712 0 0 0
507 43 1 11.745464408306157 15.851930704277265 0.39687289296583583 0 0 0
559 47 1 10.199981845404414 15.16568391968825 1.5772049541452209 0 0 0
506 43 1 11.875676731238133 15.588233771062159 1.293901186428942 0 0 0
699 59 1 12.568642835771838 16.392619272166968 31.892943176930803 0 0 -1
859 72 1 12.75529674316076 15.23782278154432 0.8437605262716834 0 0 0
698 59 1 12.909623041157506 16.26886975592392 0.7551031331638768 0 0 0
414 35 1 14.369161379103147 13.715387155069909 0.7878213514606703 0 0 0
409 35 1 13.570522568896772 14.511069665005785 1.0634061944269027 0 0 0
697 59 1 13.574842449874229 15.802056942698432 0.22481175464258585 0 0 0
2764 231 2 16.289232625589413 15.110774362243056 31.676815894591925 0 0 0
416 35 1 14.695638285373873 14.563986475883814 0.230268392847024 0 0 0
417 35 1 14.946607689905116 15.393945771519737 31.747615653730545 0 0 -1
918 77 1 16.87878161905231 15.928750735872724 1.223058302252015 0 0 0
919 77 1 16.9745472154079 15.009985722184432 1.047378906400646 0 0 0
2745 229 2 18.243600492075554 14.858778736972413 0.9692231082407707 0 0 1
2746 229 2 18.015000561765838 14.68806699494241 0.02697219197214119 0 0 1
917 77 1 17.585523078919287 15.904820574500981 0.5838603356647049 0 0 0
2496 208 2 19.968880203452905 13.728797740347156 2.1111586939914244 0 0 1
2495 208 2 19.30883950669186 13.11837485737967 2.0223377388594312 0 0 1
1467 123 1 6.848633788719401 16.359246185338172 0.22220123041101536 0 0 0
1466 123 1 6.334986563571056 16.4117411292537 0.9935951565973511 0 0 0
1322 111 1 5.602047063407629 18.227145206244852 1.7362998971184431 0 0 0
1469 123 1 8.618227831267351 16.527022794935974 0.38788762971875185 0 0 0
1472 123 1 8.124097784025203 15.921465640218173 1.265073645958392 0 0 0
1468 123 1 7.707730049735657 16.569217477572558 0.3995342309495658 0 0 0
1470 123 1 9.12075669450148 17.00653213731586 1.031702331361378 0 0 0
1426 119 1 9.94256743206884 17.818449075702162 31.768045350390793 0 0 -1
1393 117 1 9.228025739555276 15.651310925654734 31.606227437132674 0 0 -1
508 43 1 11.14570509278272 16.618250012659946 0.2865910572931266 0 0 0
1424 119 1 10.31718222674014 15.955658873194103 0.07664886242581492 0 0 0
1425 119 1 10.176394393652453 16.859714005643607 31.823667050436978 0 0 -1
510 43 1 11.963618349326067 17.525285629985714 0.559868942462282 0 0 0
511 43 1 12.064979083974158 16.743776741555266 1.1912635033024248 0 0 0
704 59 1 13.313288719405193 16.93670045131903 30.87753518585356 0 0 -1
705 59 1 13.656022517578768 16.826537403134328 31.75804279517977 0 0 -1
419 35 1 14.391579789694719 16.59362457745134 31.17478733235989 0 0 -1
418 35 1 15.071891750145845 16.329930177022884 31.764595584527463 0 0 -1
2049 171 2 16.07025690364947 16.00087729748877 2.136303316677626 0 0 1
2744 229 2 18.41176594825196 15.56442073746178 1.5580633940957156 0 0 1
1151 96 1 6.899923455522332 17.340194472418588 0.7363615909540842 0 0 0
1150 96 1 6.373983511596585 18.14402835173129 0.5578496623903809 0 0 0
1321 111 1 5.348748716338621 17.40952368363734 2.0283435123293265 0 0 0
1149 96 1 6.869485985837778 18.18634803346909 1.3892832913975468 0 0 0
1391 116 1 8.684632651895646 18.318750374007614 0.3934744661005362 0 0 0
1390 116 1 8.478818977140767 18.642427053281036 1.2663396133797158 0 0 0
1428 119 1 8.738459936584723 18.058373198570152 31.113951161572018 0 0 -1
1387 116 1 8.781831813368887 17.774378878308347 1.8382143065842438 0 0 0
1427 119 1 9.094717455523082 17.38665801640291 31.72353450560659 0 0 -1
1385 116 1 9.629015745044152 18.095911652738632 1.2439847336377206 0 0 0
1289 108 1 10.985511261995493 17.923001706607636 0.42696400526731193 0 0 0
1290 108 1 10.355425831572038 18.666981574256713 0.4676555007382063 0 0 0
2773 232 2 12.844704898323917 18.058752203528567 1.2338763159591075 0 0 1
1296 108 1 12.077446424826093 18.622925539826806 0.49968654573506216 0 0 0
1750 146 2 14.192572268340395 17.460991300787597 1.5543974393715139 0 0 1
1751 146 2 14.917330638185863 17.819233286195555 0.9653597330370812 0 0 1
1746 146 2 16.169598226131633 17.374970805499768 1.5255693263677699 0 0 1
1745 146 2 16.240454287300185 16.803067933714427 0.7415964058575139 0 0 1
1752 146 2 15.16033819400594 18.658772811869184 1.378030635821988 0 0 1
1742 146 2 17.749495750396882 17.900972574128964 1.406588113032485 0 0 1
1382 116 1 9.115616221355653 19.414144127946116 31.62183857233604 0 0 -1
1383 116 1 9.827454762456375 19.478770209508063 0.25788245251471775 0 0 0
1291 108 1 10.602121787627144 19.30148177806803 1.115781509312535 0 0 0
1292 108 1 11.490513841606722 19.426150943190834 1.684634521631466 0 0 0
1384 116 1 9.371497625810685 18.9641752748236 0.8997666837550664 0 0 0
1293 108 1 11.343209559863158 19.121944829432596 2.569093345826961 0 0 0
1294 108 1 12.135241613240005 18.619698045527063 2.273017347218391 0 0 0
1295 108 1 11.780998780362284 18.259917483757725 1.4151754645380226 0 0 0
3263 272 2 10.134844396142999 2.591684144199131 1.8929164492479977 0 0 1
2657 222 2 14.904756829367532 1.780240537385199 2.1719451971379846 0 0 1
2808 234 2 13.961495099026928 2.0893997686716603 0.8535705154104527 0 0 1
166 14 1 6.526724437821754 2.7167673399651626 3.24921027223895 0 0 0
2832 236 2 7.995541983488408 2.999654220034174 2.183863833887123 0 0 1
3262 272 2 10.670503144749336 2.487005530700178 1.110488768855726 0 0 1
3261 272 2 10.303748830168468 2.7194552588811427 0.23735281600354322 0 0 1
3260 272 2 10.048130014333578 3.376200317055921 0.908978068126187 0 0 1
2700 225 2 10.908152159422949 2.717363172273989 2.4989951345647716 0 0 1
2699 225 2 11.676528495755383 2.206996223395902 2.3073494685682867 0 0 1
2697 225 2 12.308749433245994 2.103276107934109 3.19117779881474 0 0 1
2662 222 2 12.926522569840913 2.0403378252097037 1.4155537901315158 0 0 1
2698 225 2 12.14512694145222 1.399973084773493 2.5159426837201795 0 0 1
2658 222 2 14.216349427900452 1.1993210033401611 2.011403880423396 0 0 1
2664 222 2 13.707518088041805 2.118423561929294 2.153761765508042 0 0 1
2656 222 2 14.46790785975592 2.3832633977105444 2.7752247755397437 0 0 1
2806 234 2 13.983408858848728 3.290429189756768 1.8817469551258583 0 0 1
2807 234 2 14.352645431262129 2.9189910345382835 1.137621712347778 0 0 1
2805 234 2 13.249319358593603 3.3622187677533577 1.2798553621489337 0 0 1
2643 221 2 16.75693751756429 3.738409852969598 1.2829933386882288 0 0 1
2641 221 2 17.727436388423488 2.2106953299759726 1.3061408713477867 0 0 1
2642 221 2 17.15626068473003 2.912877901782373 1.474836872931649 0 0 1
2679 224 2 17.91236092132886 3.502125775558565 2.927624079113737 0 0 1
3003 251 2 19.152026214483584 1.5883207573594398 2.418591206646061 0 0 1
2396 200 2 5.430131300730416 4.591321146719862 2.996141953721961 0 0 1
2278 190 2 8.16114764890145 4.096854732826113 1.0645655731932542 0 0 1
2394 200 2 6.2041872573735874 5.570386537659391 1.7618758925406417 0 0 1
3120 260 2 9.556692221440677 4.600239732995817 1.2045844590917325 0 0 1
3259 272 2 10.54438385794539 3.7392230171511875 1.5721035565842953 0 0 1
3258 272 2 10.941567439307235 4.624335421006376 1.6382958221624289 0 0 1
2429 203 2 11.178052377720418 3.767801948639468 3.564016547295091 0 0 1
3130 261 2 11.53915025362603 3.8351013870486397 1.2779150219474222 0 0 1
3131 261 2 12.407083291561658 3.901345735391138 1.6499628153983337 0 0 1
2663 222 2 12.833870898935556 2.59416562342102 2.195900014244525 0 0 1
2804 234 2 13.453045313054295 4.256672520908487 1.2812398458576508 0 0 1
2714 227 2 13.252269045153362 3.9516228275028453 2.3134361328564665 0 0 1
2572 215 2 14.90696355744209 4.506170221766615 1.0830727560156972 0 0 1
2713 227 2 13.876070153297286 3.5937990984884958 2.980939649946462 0 0 1
2910 243 2 17.004951477575208 4.628828553551862 1.7905680395505517 0 0 1
2909 243 2 17.604281290451784 3.839870233454295 1.8101422640648102 0 0 1
2908 243 2 16.888305693603346 3.8112857553863186 2.424926868636998 0 0 1
2680 224 2 18.1203789962716 2.9857077503768115 2.155664029185238 0 0 1
3001 251 2 19.262087595895984 1.3561442419704495 1.47145503822475 0 0 1
3002 251 2 18.417972662790678 1.7387296546829476 1.8395484831429358 0 0 1
2683 224 2 19.468813472775278 3.633333637114456 1.1313301167875556 0 0 1
3004 251 2 19.35025492606654 2.5331028630579286 2.5368039038772467 0 0 1
1211 101 1 4.394806329297665 4.996692130033559 1.7997876584635486 0 0 0
1210 101 1 4.58922043939264 5.824313665968849 2.1892348066720664 0 0 0
2395 200 2 5.879148231243107 5.426439569731569 2.6941747241786866 0 0 1
2393 200 2 7.13750048295738 5.6004583407284185 1.7138527386297975 0 0 1
2392 200 2 7.104401180032841 6.563480935655715 1.6476560950897183 0 0 1
3119 260 2 8.773223078934551 5.030196883584111 0.7973465768645076 0 0 1
151 13 1 9.657130010178603 4.387740264193119 2.2020468972717095 0 0 0
3257 272 2 11.880503198035486 4.860694064691576 1.5239210888112502 0 0 1
152 13 1 10.24690579665278 5.216323572660745 2.0934441810057134 0 0 0
153 13 1 11.055863049145225 5.748895632361475 1.7958101312259813 0 0 0
3256 272 2 12.631353655222462 4.801035303411778 2.085334039695602 0 0 1
3255 272 2 12.928207668010302 5.2897279503954575 1.3392825561592616 0 0 1
3254 272 2 13.309254817752453 6.109277470067565 1.576309076705561 0 0 1
3133 262 2 14.297236300678325 6.406665874656824 1.7840352170455065 0 0 1
2715 227 2 13.869852288338029 4.60973288752691 2.0998957610733027 0 0 1
2574 215 2 15.088803022608376 4.0926177602057345 2.0941322371515247 0 0 1
2573 215 2 14.82806757991851 4.962892038935121 1.9477447743701333 0 0 1
2577 215 2 15.98302847033543 5.835190393790345 2.101444846124175 0 0 1
2575 215 2 15.43256288587841 4.344812897620731 2.935352600048052 0 0 1
3180 265 2 16.785049843284956 5.773935451516921 2.8103112398061074 0 0 1
2651 221 2 18.897496225928872 5.018969224607182 0.7183223953831444 0 0 1
2681 224 2 18.702597909146068 2.777129302214997 1.4190880877330683 0 0 1
3012 251 2 18.187824138725222 6.1567094126292075 0.7907295371842727 0 0 1
3009 251 2 17.84635427097279 5.567701005694584 2.4798634685694885 0 0 1
2648 221 2 17.75026541356877 5.21764341826572 0.42204102045196257 0 0 1
3006 251 2 19.225645382831356 3.9833055080191655 3.5359408343211363 0 0 1
2682 224 2 18.488668767171877 3.6859793555551468 1.1258928308623748 0 0 1
2859 239 2 3.468208542783323 6.5393694610880475 2.564551618707506 0 0 1
2860 239 2 3.274571424159205 6.668606869577809 1.6253749984039043 0 0 1
1209 101 1 5.329216090366964 6.432701550653108 2.3961320047704193 0 0 0
1208 101 1 4.5227325263144875 7.004809945572578 2.3534485870701483 0 0 0
171 15 1 6.261962395799782 7.13115483297802 2.450452120620336 0 0 0
170 15 1 6.047308201523082 6.666831218066957 1.6580343772084543 0 0 0
2391 200 2 7.04793112987668 7.264487685535018 0.9982914978450034 0 0 1
940 79 1 7.979998033073024 7.9099229541092555 1.335544577023023 0 0 0
173 15 1 7.56536778690938 6.751058964585642 3.0496750941053494 0 0 0
146 13 1 8.174777974772818 6.207596866966654 2.3017942717298823 0 0 0