ITEM: TIMESTEP
1000
ITEM: NUMBER OF ATOMS
1792
ITEM: BOX BOUNDS pp pp pp
0.0000000000000000e+00 3.2000000000000000e+01
0.0000000000000000e+00 3.2000000000000000e+01
0.0000000000000000e+00 3.2000000000000000e+01
ITEM: ATOMS id type xu yu zu
1 1 1.05438 -0.641196 2.53751
2 1 0.272749 -0.0755373 2.63761
3 1 0.272631 0.796252 3.00756
4 1 0.676566 0.120734 3.57314
5 1 -0.0467285 -0.299539 4.03982
6 1 0.0512373 0.424426 4.68407
7 1 0.0759714 -0.370254 5.23382
8 1 0.483683 0.146496 5.94484
9 1 -0.273797 0.266528 6.50491
10 1 0.115153 -0.0855438 7.32292
11 1 0.388922 0.289308 8.17815
12 1 0.526601 -0.422614 8.84543
13 1 0.909573 -0.171607 9.69261
14 1 0.238299 -0.350636 10.3642
15 1 0.868513 0.0898383 10.9402
16 1 0.626547 0.846759 11.5004
17 1 3.11538 -0.269329 2.54779
18 1 2.66998 -0.222697 3.38761
19 1 3.58182 0.0966728 3.35422
20 1 4.1473 -0.67973 3.50745
21 1 3.42824 -0.549131 4.14757
22 1 3.11232 -0.394641 5.03538
23 1 4.02892 -0.12347 4.94915
24 1 3.80627 -0.291044 5.88074
25 1 3.82607 -0.326853 6.84246
26 1 3.96999 -0.18542 7.76929
27 1 4.1538 -0.34756 8.6943
28 1 4.13881 0.53711 9.04661
29 1 3.82847 -0.0825862 9.72658
30 1 3.5543 -0.202552 10.6371
31 1 3.6281 0.756837 10.7411
32 1 3.69681 0.236095 11.5503
33 1 8.81223 -0.708914 1.34979
34 1 8.49172 -0.100987 2.01551
35 1 8.27756 0.0179266 2.95269
36 1 7.53946 0.613705 3.17239
37 1 7.6954 0.0533576 3.9317
38 1 7.63022 0.94931 4.26264
39 1 7.73364 0.487573 5.1058
40 1 7.56349 0.483247 6.0676
41 1 7.62477 0.0611318 6.97045
42 1 7.9549 0.102234 7.8698
43 1 7.17699 0.162201 8.4278
44 1 7.50731 -0.599707 8.91088
45 1 7.65131 0.18434 9.45558
46 1 6.82068 -0.111892 9.90113
47 1 7.54785 0.0633837 10.5029
48 1 7.22128 0.19525 11.411
49 1 11.3759 -0.192411 1.76006
50 1 10.7214 0.223902 2.33211
51 1 11.5854 0.378397 2.72158
52 1 11.7707 0.0251198 3.59402
53 1 11.7078 0.813242 4.12818
54 1 11.4693 0.315427 4.92158
55 1 11.626 0.626425 5.81844
56 1 11.7503 -0.0902036 6.45689
57 1 12.0913 0.03128 7.37201
58 1 12.0006 0.745696 8.0214
59 1 12.6033 0.348402 8.66538
60 1 11.6892 0.0715385 8.75469
61 1 11.0091 0.112305 9.44232
62 1 11.4207 0.733512 10.0416
63 1 10.9774 0.753788 10.8973
64 1 11.8522 0.942801 11.2383
65 1 15.3224 -0.126275 2.05376
66 1 14.8575 -0.498723 2.81463
67 1 15.6216 -0.4871 3.37572
68 1 15.0931 -1.13816 3.83808
69 1 15.3637 -1.24582 4.7389
70 1 14.7907 -0.851367 5.4079
71 1 15.2048 -0.145693 5.89783
72 1 14.6976 -0.673635 6.50991
73 1 15.2198 -0.00292353 6.94933
74 1 14.4459 -0.300324 7.43298
75 1 15.1228 -0.000483514 8.03345
76 1 15.3383 0.189891 8.93398
77 1 15.3978 0.37465 9.84549
78 1 16.1604 0.466359 10.4108
79 1 15.9749 -0.364284 10.8521
80 1 15.194 -0.704143 11.3045
81 1 19.0897 0.456377 1.83557
82 1 19.6549 -0.264548 1.57196
83 1 20.2941 0.28312 2.0397
84 1 20.0031 0.33711 2.95236
85 1 19.6443 -0.141391 3.71391
86 1 20.0732 0.291961 4.46609
87 1 20.0689 -0.510239 4.95686
88 1 19.7541 0.185956 5.58224
89 1 20.4915 0.265996 6.19515
90 1 20.0941 -0.100885 6.98792
91 1 19.5173 -0.238058 7.75627
92 1 19.1726 -0.417968 8.65588
93 1 18.707 -0.481358 9.49878
94 1 18.7617 -0.0601565 10.3545
95 1 19.6661 -0.0762162 10.7027
96 1 19.0631 0.519311 11.1741
97 1 22.7962 0.777935 0.987608
98 1 23.1279 0.122216 1.60842
99 1 22.579 -0.285495 2.28605
100 1 23.0518 -0.386336 3.12815
101 1 23.1293 0.12119 3.94931
102 1 23.4418 -0.0326343 4.85415
103 1 23.058 0.127425 5.71946
104 1 23.3523 0.193474 6.63564
105 1 23.0185 -0.10792 7.47655
106 1 23.5043 -0.672379 8.06238
107 1 23.4476 0.203746 8.47424
108 1 23.072 -0.216606 9.26415
109 1 22.3048 -0.611169 9.7309
110 1 22.7331 -0.11318 10.4193
111 1 22.4138 0.490666 11.0978
112 1 23.2598 0.0939722 11.3159
113 1 25.0688 -0.182021 2.36171
114 1 25.9552 -0.55128 2.42423
115 1 26.3009 0.146848 2.9653
116 1 26.2081 -0.475301 3.71139
117 1 27.0534 -0.0219804 3.72519
118 1 26.8693 -0.135518 4.65978
119 1 26.9078 0.0145424 5.59857
120 1 27.76 0.0106221 6.02485
121 1 27.9077 -0.209721 6.94353
122 1 27.9453 -0.709954 7.77472
123 1 27.2326 -0.0585855 7.82787
124 1 26.8628 -0.021813 8.71422
125 1 26.3879 0.153611 9.54944
126 1 27.2171 -0.299901 9.73988
127 1 27.0842 0.0400035 10.634
128 1 27.3448 0.569716 11.3898
129 1 0.0818328 4.87173 1.32904
130 1 -0.660103 4.71585 1.8771
131 1 -0.389374 4.72636 2.78036
132 1 0.331977 4.65429 3.42609
133 1 -0.511449 4.44551 3.8111
134 1 -0.0310256 5.00981 4.41149
135 1 -0.353505 4.47067 5.13511
136 1 0.310017 4.37025 5.8098
137 1 -0.353628 4.84995 6.32259
138 1 -0.0829617 4.64378 7.21933
139 1 0.440357 4.59993 8.02887
140 1 -0.466973 4.61552 8.33729
141 1 0.0600076 3.8722 8.65699
142 1 0.0306896 4.08882 9.57352
143 1 -0.586512 4.80162 9.46126
144 1 -0.282932 4.65497 10.377
145 1 4.25797 4.6885 1.31224
146 1 4.23154 5.04684 2.20745
147 1 3.78375 4.52991 2.8912
148 1 4.55139 4.36344 3.42892
149 1 3.81052 4.26281 4.05018
150 1 4.19875 3.8838 4.8414
151 1 4.62728 4.5884 5.311
152 1 3.74419 4.59314 5.6898
153 1 3.8255 3.78742 6.15627
154 1 3.70184 3.81781 7.09633
155 1 3.8515 4.48192 7.73669
156 1 4.14996 5.31893 8.06064
157 1 4.33397 5.15631 9.01062
158 1 3.42693 4.89232 9.2297
159 1 3.75967 4.29845 9.93965
160 1 3.84687 4.27032 10.897
161 1 7.49642 4.7446 2.93958
162 1 7.40423 4.35751 2.06374
163 1 7.5074 3.38831 2.19933
164 1 7.82397 3.71907 3.03173
165 1 8.03936 3.69994 3.95374
166 1 8.58164 4.25781 4.51095
167 1 7.75007 3.97892 4.935
168 1 7.96297 4.35476 5.79314
169 1 8.16142 4.47829 6.71791
170 1 7.8931 4.2528 7.60177
171 1 7.89023 4.35295 8.55974
172 1 7.74001 4.6528 9.44468
173 1 8.38417 4.28047 10.0372
174 1 7.6287 4.69005 10.4743
175 1 7.70435 4.0318 11.1625
176 1 7.03894 4.67876 11.4613
177 1 11.0535 4.61056 2.4018
178 1 10.7203 3.92167 2.98099
179 1 11.3169 3.24416 3.27818
180 1 11.902 3.95547 2.99378
181 1 11.3632 4.24703 3.72512
182 1 11.3825 4.47206 4.64395
183 1 11.0102 4.70836 5.49409
184 1 11.8996 5.10145 5.53344
185 1 11.4354 5.07275 6.373
186 1 11.3959 5.18435 7.30537
187 1 11.6266 4.74128 8.12089
188 1 12.2031 5.29005 8.69094
189 1 12.4722 5.00562 9.58048
190 1 12.0223 5.6719 10.1224
191 1 11.838 4.74135 10.3703
192 1 11.3941 4.59539 9.54199
193 1 15.5265 4.07461 1.84286
194 1 14.9206 4.72274 2.18323
195 1 15.078 4.29001 3.0284
196 1 15.616 4.75909 3.67909
197 1 15.8414 4.24588 4.45434
198 1 16.1007 4.66727 5.27972
199 1 15.2013 4.31092 5.36004
200 1 15.1973 4.96452 6.05184
201 1 15.7386 5.07676 6.83169
202 1 15.6489 4.46924 7.54252
203 1 15.4749 4.56257 8.46364
204 1 16.0933 4.66548 9.18033
205 1 15.7703 4.86183 10.0514
206 1 15.1017 4.20796 10.2924
207 1 14.8756 4.28495 11.2206
208 1 15.7319 3.85321 11.1416
209 1 19.7396 4.76413 2.31508
210 1 19.4143 3.91565 1.97435
211 1 19.5164 3.80858 2.9158
212 1 19.9447 4.48519 3.45644
213 1 19.209 4.08825 3.91236
214 1 19.6544 4.05721 4.77959
215 1 19.5101 5.00153 4.95903
216 1 19.4617 4.57539 5.84054
217 1 19.2821 4.46305 6.80827
218 1 19.4325 4.97689 7.63698
219 1 19.9483 5.3855 8.34255
220 1 19.4751 5.62995 9.16929
221 1 19.1336 5.88711 10.0454
222 1 18.9152 4.95167 9.93515
223 1 19.8734 5.02818 9.86727
224 1 20.3477 4.50255 10.508
225 1 22.413 4.38129 2.32929
226 1 23.2726 4.64636 1.99407
227 1 23.6043 4.54656 2.89165
228 1 23.1964 5.02621 3.59969
229 1 22.7557 4.16491 3.71753
230 1 22.4875 4.63529 4.50106
231 1 23.1651 4.41817 5.13765
232 1 23.4045 4.5436 6.06605
233 1 23.2817 4.91066 6.95298
234 1 22.913 5.21934 7.80337
235 1 23.824 4.98644 7.96062
236 1 23.5295 4.40583 8.64445
237 1 23.207 5.29911 8.82423
238 1 23.3071 4.7208 9.59691
239 1 22.7033 4.38284 10.2664
240 1 23.1339 3.51035 10.3151
241 1 26.8827 4.67577 2.16895
242 1 27.3875 3.85695 2.20157
243 1 27.7109 4.27315 3.00733
244 1 27.058 4.4002 3.71267
245 1 27.1363 3.90694 4.53358
246 1 26.4852 4.60503 4.69738
247 1 27.2133 4.86188 5.26034
248 1 26.8557 5.1542 6.10288
249 1 27.2637 4.91879 6.91775
250 1 26.7042 4.82638 7.68496
251 1 26.1924 5.47609 8.15883
252 1 26.5371 5.0528 8.9405
253 1 27.2358 4.3904 8.88935
254 1 27.2562 4.14442 9.81744
255 1 26.6484 4.78907 10.201
256 1 26.2651 5.02224 11.061
257 1 0.103775 10.0074 1.76271
258 1 -0.84426 10.2183 1.85669
259 1 -0.425945 9.77123 2.59954
260 1 -0.386336 9.14523 3.29317
261 1 -0.265014 8.83695 4.17709
262 1 -0.680084 9.59923 4.60749
263 1 -0.637856 8.80893 5.16583
264 1 -0.43469 8.94775 6.10433
265 1 -0.757699 8.5512 6.92826
266 1 -0.519235 8.35952 7.84037
267 1 -0.980769 9.11384 8.19133
268 1 -0.51726 8.77707 8.94874
269 1 -0.278446 9.15814 9.79824
270 1 -0.237442 8.94121 10.7318
271 1 -0.361942 9.75013 11.2331
272 1 -1.13315 9.15038 11.2801
273 1 4.67551 8.4012 2.38284
274 1 3.82173 8.46495 1.97692
275 1 3.43442 8.48419 2.85892
276 1 4.22991 8.93707 3.17136
277 1 4.07911 8.5679 4.01941
278 1 3.49492 8.58628 4.77089
279 1 4.33576 8.78489 5.22048
280 1 4.18602 8.01913 5.77558
281 1 3.90521 8.60446 6.50377
282 1 4.11374 8.42806 7.43468
283 1 3.88889 8.46843 8.36924
284 1 4.4192 8.50368 9.15631
285 1 4.96455 7.80899 9.5247
286 1 4.23129 8.02287 10.0988
287 1 4.12814 7.9975 11.0499
288 1 5.0027 7.77531 11.3881
289 1 7.09218 8.52393 2.63451
290 1 7.244 9.10055 3.36378
291 1 8.10602 8.9964 2.91122
292 1 8.19868 8.06265 3.1747
293 1 8.24531 7.81858 4.08666
294 1 8.24032 8.77697 4.08957
295 1 7.5373 8.89503 4.73812
296 1 7.76643 9.03148 5.68294
297 1 7.25835 9.46443 6.40361
298 1 7.51368 8.93357 7.18063
299 1 7.79342 8.66125 8.04316
300 1 8.02578 8.53723 8.95997
301 1 8.20866 8.76323 9.8731
302 1 8.01203 8.27117 10.6826
303 1 7.16996 8.48366 10.2878
304 1 7.05843 9.10612 11.0099
305 1 12.2074 9.22662 1.88487
306 1 11.7575 8.64741 2.50302
307 1 12.0469 9.44461 2.94519
308 1 11.5405 9.15859 3.69504
309 1 11.4749 8.87409 4.59662
310 1 11.2882 9.24205 5.46575
311 1 11.0627 8.31371 5.54491
312 1 10.5721 8.86236 6.20458
313 1 11.394 8.89589 6.74148
314 1 10.6283 8.86459 7.35852
315 1 11.1315 8.70331 8.14611
316 1 11.4339 8.91806 9.01208
317 1 10.708 8.2893 8.96448
318 1 10.5188 8.46779 9.88303
319 1 11.1121 9.2222 10.0125
320 1 11.2452 8.51878 10.6558
321 1 16.2152 8.14132 3.32486
322 1 15.5091 8.77285 3.17334
323 1 15.8109 9.64962 3.44205
324 1 14.9912 9.41381 3.85808
325 1 15.7553 8.94193 4.17568
326 1 15.2707 9.34937 4.89951
327 1 15.9679 8.71543 5.11381
328 1 15.4407 8.85203 5.87091
329 1 15.6975 9.1275 6.76284
330 1 15.4102 9.02278 7.6694
331 1 14.818 9.18455 8.42536
332 1 14.819 8.30066 8.76502
333 1 15.475 8.75647 9.30874
334 1 15.5248 9.05559 10.2236
335 1 14.9467 8.98879 10.986
336 1 15.4041 8.30843 11.4785
337 1 19.9158 8.89439 2.45299
338 1 19.8552 8.39841 3.27214
339 1 19.0602 8.93378 3.16188
340 1 18.9 8.50454 3.99129
341 1 19.7172 8.7064 4.46127
342 1 18.9848 8.93053 5.03239
343 1 19.3228 8.60447 5.88979
344 1 19.489 8.66236 6.84791
345 1 19.3435 8.48717 7.78086
346 1 18.8691 9.19625 8.23026
347 1 19.3155 8.80459 8.98183
348 1 18.5635 8.22779 9.13424
349 1 18.5758 8.44218 10.0781
350 1 19.409 8.86928 10.2225
351 1 19.0232 9.68729 10.5588
352 1 18.9638 9.00337 11.2428
353 1 23.263 9.36928 1.0157
354 1 23.1761 9.06596 1.93797
355 1 23.1882 8.80127 2.86763
356 1 22.8301 8.00989 3.25654
357 1 22.5064 8.72373 3.79469
358 1 22.0393 8.56245 4.61249
359 1 22.4719 8.10906 5.34315
360 1 22.8116 8.27873 6.21336
361 1 23.5968 8.29055 6.72162
362 1 22.903 8.59992 7.30913
363 1 22.7312 8.27704 8.2319
364 1 22.8629 8.6012 9.13363
365 1 23.3892 9.30266 9.55131
366 1 23.7626 9.56757 10.3896
367 1 24.2858 9.05366 10.9978
368 1 23.7872 9.76501 11.3993
369 1 26.9613 8.61892 1.63795
370 1 27.724 8.81955 2.20366
371 1 26.8942 8.93754 2.65027
372 1 27.3092 8.5362 3.41376
373 1 27.9749 8.02008 3.87464
374 1 27.827 8.58762 4.62721
375 1 27.6729 8.37568 5.57626
376 1 28.2209 8.39909 6.37171
377 1 27.4542 8.91452 6.56715
378 1 27.587 8.24448 7.25526
379 1 27.1732 7.9792 8.09009
380 1 27.2129 8.80918 8.59251
381 1 26.3909 8.30124 8.74854
382 1 27.1404 7.81606 9.059
383 1 27.661 7.67642 9.83496
384 1 27.1783 6.91082 9.49402
385 1 0.365454 12.8743 0.441442
386 1 0.424052 12.8252 1.40443
387 1 0.433205 13.2688 2.25411
388 1 0.496339 13.4575 3.19957
389 1 0.778765 12.5808 3.50943
390 1 0.574536 13.1986 4.2255
391 1 0.4463 13.086 5.16226
392 1 0.37105 13.198 6.11405
393 1 0.151032 13.2566 7.04804
394 1 0.0810097 13.4659 7.97017
395 1 -0.245893 13.014 8.75645
396 1 -0.686223 13.4799 9.50206
397 1 0.034233 13.0197 9.91101
398 1 -0.69577 13.0497 10.5604
399 1 -0.160018 13.2824 11.3064
400 1 0.378883 13.9672 10.9008
401 1 4.18795 13.5844 2.02403
402 1 4.04515 14.0533 2.84593
403 1 3.39665 13.3477 2.76366
404 1 3.15137 12.8759 3.57206
405 1 3.66176 13.6656 3.76511
406 1 3.63969 13.7545 4.7159
407 1 3.54245 13.4429 5.6061
408 1 4.14556 13.1698 6.28077
409 1 3.90955 13.8813 6.88888
410 1 4.09283 14.2389 7.76327
411 1 4.30859 13.777 8.59326
412 1 4.23092 14.2519 9.45554
413 1 4.48173 13.9406 10.3471
414 1 3.73477 13.3743 10.1049
415 1 3.43566 14.0717 10.6691
416 1 3.20323 13.255 11.1144
417 1 8.62483 11.522 1.09535
418 1 8.27523 11.8788 1.91983
419 1 7.63462 12.6144 1.98068
420 1 7.22445 12.9593 2.77348
421 1 7.78549 12.6416 3.48182
422 1 7.64246 12.4153 4.39648
423 1 7.76794 12.4523 5.35185
424 1 7.7974 12.6983 6.28228
425 1 8.22338 12.4836 7.12064
426 1 7.60067 12.762 7.78618
427 1 7.34428 12.1994 8.53518
428 1 7.71695 12.7419 9.22301
429 1 7.01342 12.6384 9.87136
430 1 7.18712 12.1387 10.6844
431 1 6.40662 12.6943 10.7841
432 1 6.63587 12.4848 11.7002
433 1 11.9055 12.2675 1.35301
434 1 11.6395 12.7914 2.10943
435 1 11.2795 13.3545 2.80917
436 1 11.9807 12.7631 3.10698
437 1 12.0713 13.4157 3.80355
438 1 11.4998 13.2395 4.56911
439 1 12.0654 13.2107 5.37312
440 1 12.1173 13.2052 6.33189
441 1 12.0261 12.949 7.26521
442 1 12.045 13.5748 8.00732
443 1 12.0118 12.622 8.1966
444 1 11.2799 12.7023 8.79035
445 1 11.6107 13.5185 9.18039
446 1 11.9527 13.4046 10.0634
447 1 11.8871 14.0303 10.8163
448 1 12.2336 13.6254 11.6336
449 1 15.2888 12.354 1.60814
450 1 15.5234 12.2475 2.53288
451 1 15.7231 12.5226 3.43463
452 1 15.1354 13.1504 3.86341
453 1 15.2975 13.7364 4.62059
454 1 16.195 13.5115 4.8259
455 1 15.8301 14.0811 5.47892
456 1 14.9654 13.8077 5.79225
457 1 15.6847 13.8592 6.44373
458 1 15.4718 13.7795 7.35336
459 1 15.2785 13.9411 8.28146
460 1 15.4367 14.0597 9.24549
461 1 15.6504 14.5736 10.0449
462 1 15.3285 13.797 10.4924
463 1 15.5276 14.1446 11.3583
464 1 15.248 13.414 11.8873
465 1 20.2629 13.1789 1.73528
466 1 19.3377 13.0161 1.93779
467 1 19.7614 13.2619 2.76358
468 1 20.3183 13.0121 3.53615
469 1 19.8837 12.8586 4.38121
470 1 19.3823 13.6009 4.75958
471 1 19.4659 12.9619 5.45865
472 1 19.0243 12.5921 6.20826
473 1 18.8201 12.2621 7.07499
474 1 19.5372 12.8281 7.40921
475 1 18.6998 13.0853 7.79852
476 1 18.9414 12.7465 8.65899
477 1 19.7162 12.9164 9.18733
478 1 19.4203 13.0282 10.0743
479 1 19.1267 12.1223 9.95731
480 1 18.5093 11.6078 10.4949
481 1 23.3147 13.1805 1.40106
482 1 22.8242 13.7328 2.0323
483 1 23.5785 13.2901 2.44774
484 1 23.5522 13.4784 3.39167
485 1 22.6678 13.8657 3.42814
486 1 23.0178 13.5814 4.28454
487 1 22.8591 13.3331 5.20255
488 1 23.4727 13.4951 5.93134
489 1 22.6318 13.2793 6.34082
490 1 22.7728 12.7351 7.12132
491 1 22.6565 13.337 7.87849
492 1 23.0401 12.6091 8.35239
493 1 22.5286 12.8991 9.09925
494 1 23.4748 12.959 9.27647
495 1 23.2062 13.5997 9.93434
496 1 22.6979 13.0998 10.5804
497 1 26.7861 12.8061 0.691614
498 1 26.6551 13.0526 1.63242
499 1 26.7638 12.69 2.51838
500 1 26.8291 13.4736 3.09092
501 1 26.9731 12.6497 3.54521
502 1 27.1622 12.8024 4.46672
503 1 27.173 13.4434 5.18644
504 1 27.2753 13.4965 6.13345
505 1 27.2985 13.2639 7.07001
506 1 27.2527 13.3991 8.00495
507 1 27.2432 13.5241 8.93471
508 1 26.5064 14.0686 9.23681
509 1 27.3987 14.2946 9.57864
510 1 27.5563 13.4052 9.92161
511 1 26.7393 13.4359 10.4505
512 1 26.5168 13.4394 11.3573
513 1 -0.616514 17.6289 1.97628
514 1 0.294451 17.8462 2.17394
515 1 0.658392 17.448 2.96444
516 1 -0.1008 17.8306 3.40204
517 1 0.322623 17.2315 4.03428
518 1 0.716236 17.9844 4.52184
519 1 0.065401 17.5234 5.02009
520 1 0.0385401 18.1479 5.7208
521 1 0.332025 17.6264 6.45949
522 1 0.331372 17.3112 7.36656
523 1 0.490674 17.5308 8.28207
524 1 0.660306 17.1558 9.14312
525 1 0.234678 17.311 9.99172
526 1 0.703166 16.5741 10.361
527 1 0.950721 17.3686 10.8322
528 1 1.17969 16.5833 11.3431
529 1 3.19589 17.1761 1.59245
530 1 3.79657 17.0855 2.3368
531 1 3.95319 16.1502 2.33834
532 1 3.86087 16.4934 3.24849
533 1 3.61651 17.109 3.96258
534 1 4.3209 16.5604 4.29792
535 1 4.45975 17.0356 5.13187
536 1 4.27907 17.7109 5.80099
537 1 4.165 17.431 6.71622
538 1 3.75077 17.9658 7.39434
539 1 3.14286 17.6863 8.09912
540 1 4.08496 17.6685 8.32712
541 1 3.72986 17.7266 9.20904
542 1 3.73317 17.8288 10.1612
543 1 3.94748 17.163 10.8326
544 1 3.49166 16.7738 11.5948
545 1 7.45254 17.9997 1.46292
546 1 7.81743 17.2374 1.94105
547 1 8.23324 17.6183 2.71322
548 1 8.23857 17.9277 3.62075
549 1 8.06873 17.6892 4.52794
550 1 7.12263 17.7662 4.71834
551 1 7.31973 17.7698 5.64785
552 1 6.92715 17.8394 6.51498
553 1 7.79721 17.4052 6.47737
554 1 7.30056 17.2179 7.27928
555 1 7.8682 16.887 7.96998
556 1 7.35904 16.4944 8.68292
557 1 7.02148 17.2164 9.21444
558 1 7.79112 17.7619 9.37381
559 1 7.81421 17.5136 10.3082
560 1 7.63194 18.4563 10.3756
561 1 11.359 17.498 1.39248
562 1 11.9319 18.2252 1.65345
563 1 11.8501 18.3592 2.60109
564 1 11.7285 18.0576 3.51017
565 1 11.526 17.5157 4.28413
566 1 11.42 16.6509 4.72504
567 1 11.4441 17.2642 5.46062
568 1 11.2316 16.9591 6.35452
569 1 11.7777 17.4942 6.9443
570 1 10.8926 17.3142 7.2975
571 1 11.5371 17.2236 8.00372
572 1 11.3527 17.4739 8.92141
573 1 11.9456 16.7542 9.18977
574 1 11.3344 16.9337 9.90075
575 1 11.0118 16.9837 10.7891
576 1 11.7591 16.3883 10.7749
577 1 14.636 18.7763 1.7876
578 1 14.9886 17.8896 1.87983
579 1 15.0429 17.6822 2.80038
580 1 15.8947 17.4154 3.11844
581 1 15.2202 17.4912 3.817
582 1 15.8592 17.6031 4.53251
583 1 16.4379 17.1278 5.1378
584 1 16.1465 17.7201 5.83967
585 1 15.9959 17.6852 6.79436
586 1 15.8636 17.6642 7.74736
587 1 15.7296 18.2327 8.49302
588 1 15.5974 18.0256 9.43033
589 1 15.6482 17.1842 9.86271
590 1 16.0341 16.6223 10.5231
591 1 15.9986 17.359 11.1191
592 1 16.5391 18.1034 11.3663
593 1 18.7623 17.4069 1.65453
594 1 19.1072 17.4954 2.54141
595 1 18.4669 16.858 2.84117
596 1 18.5025 17.3311 3.66934
597 1 18.9466 16.6429 4.18272
598 1 19.3564 17.5252 4.24937
599 1 20.029 17.1032 4.79106
600 1 19.7672 17.3707 5.68954
601 1 19.5089 17.3499 6.63527
602 1 19.5596 17.3587 7.61855
603 1 19.8068 17.5602 8.53677
604 1 19.3114 16.7406 8.55331
605 1 19.3811 16.641 9.51526
606 1 18.6648 16.9715 10.0529
607 1 18.4836 17.5919 10.7691
608 1 18.3883 16.7984 11.312
609 1 23.3186 16.918 2.36791
610 1 23.835 16.842 3.17402
611 1 23.2808 17.6227 3.36238
612 1 23.7388 17.4811 4.19838
613 1 23.6046 17.2512 5.10739
614 1 24.1323 17.0945 5.89754
615 1 23.7988 17.9822 6.06032
616 1 22.9945 18.0286 6.572
617 1 23.1522 17.065 6.67699
618 1 23.3775 17.0203 7.60568
619 1 22.7073 17.7006 7.8126
620 1 23.4855 17.6925 8.37937
621 1 23.38 17.2509 9.22794
622 1 22.9508 16.6942 9.88425
623 1 22.661 17.4572 10.3908
624 1 22.2269 17.5686 11.2404
625 1 27.1217 17.8652 1.41307
626 1 27.6643 17.8653 2.20451
627 1 27.1761 18.0157 3.0265
628 1 28.0064 17.568 3.24579
629 1 27.7449 17.9236 4.10203
630 1 27.2171 17.2307 4.51562
631 1 27.2039 18.0576 5.02014
632 1 27.0979 17.4958 5.80199
633 1 27.0569 17.8326 6.70215
634 1 27.1476 17.9027 7.65932
635 1 26.8694 17.6536 8.55357
636 1 26.5746 17.4375 9.45491
637 1 27.1764 18.1187 9.77621
638 1 26.6103 18.0131 10.5362
639 1 26.2339 17.4519 11.2372
640 1 26.9917 17.9449 11.5793
641 1 -0.53876 22.3078 1.26006
642 1 -0.124178 21.8614 2.01724
643 1 -0.153153 21.9634 2.97331
644 1 0.811664 21.916 2.81461
645 1 0.553702 21.8401 3.73828
646 1 0.696102 21.8423 4.69396
647 1 0.253167 21.8377 5.54445
648 1 0.77447 21.8977 6.35301
649 1 0.796358 22.0525 7.27944
650 1 0.910076 22.3504 8.17247
651 1 1.06575 22.4247 9.11398
652 1 0.10917 22.4976 9.2225
653 1 0.336939 21.9042 9.94331
654 1 -0.316689 21.9472 10.6368
655 1 0.000985919 22.8082 10.9094
656 1 -0.0596417 22.3319 11.7392
657 1 4.57035 22.1319 1.8621
658 1 4.5053 21.863 2.77319
659 1 3.54937 21.9051 2.76399
660 1 3.79711 21.5426 3.61633
661 1 3.02278 21.6233 4.19088
662 1 3.58089 22.3013 4.57427
663 1 4.25315 22.1306 5.25439
664 1 4.35001 21.5249 5.99669
665 1 4.05585 21.5586 6.934
666 1 3.70806 21.5606 7.84791
667 1 4.66214 21.6273 7.91004
668 1 4.37499 21.5629 8.83815
669 1 3.81749 22.1374 9.40258
670 1 3.68418 21.8372 10.3091
671 1 4.48785 22.0287 10.8044
672 1 4.55964 21.1548 10.4364
673 1 6.33908 22.7873 1.85192
674 1 6.89914 22.3373 2.49462
675 1 6.76659 22.9489 3.21178
676 1 7.2524 22.7707 4.03192
677 1 7.41656 21.88 3.70088
678 1 8.11157 21.9663 4.36866
679 1 7.73716 21.9786 5.26358
680 1 8.22735 21.7019 6.03945
681 1 7.41705 21.9146 6.54699
682 1 8.10581 21.7756 7.19308
683 1 7.55684 22.0701 7.92182
684 1 8.41007 22.3082 8.26218
685 1 7.88697 21.8656 8.91303
686 1 7.74521 22.105 9.84591
687 1 7.5343 21.9375 10.7661
688 1 8.40122 22.257 11.0164
689 1 11.8814 22.4962 1.9076
690 1 11.1647 22.589 2.55494
691 1 11.2567 21.6382 2.43405
692 1 11.3136 20.9982 3.14559
693 1 12.0825 21.5553 3.31558
694 1 11.3003 22.0832 3.48605
695 1 11.6865 22.3416 4.30818
696 1 11.4783 22.5039 5.26589
697 1 11.4087 22.4055 6.22538
698 1 11.2056 22.4742 7.18057
699 1 11.5205 22.3813 8.10145
700 1 12.0955 22.3012 8.90081
701 1 11.3159 22.0932 9.38682
702 1 11.9298 21.9676 10.1391
703 1 11.7879 22.0238 11.0911
704 1 11.73 21.274 11.6747
705 1 14.8839 21.6754 1.06364
706 1 14.8716 22.3384 1.76692
707 1 15.1016 22.2591 2.69779
708 1 14.8812 21.7621 3.49656
709 1 14.3981 22.0391 4.27523
710 1 14.9345 22.4604 4.95564
711 1 14.9569 22.9961 5.74957
712 1 15.6716 22.3569 5.81331
713 1 15.3389 22.2395 6.70941
714 1 15.1962 22.4437 7.64024
715 1 15.829 22.0264 8.23975
716 1 14.9614 22.2371 8.65336
717 1 14.4666 21.8047 9.32898
718 1 14.3693 21.9196 10.2858
719 1 15.3336 21.7631 10.2935
720 1 15.5463 22.6773 10.4542
721 1 19.2664 20.9473 1.98358
722 1 19.4393 21.3162 2.86367
723 1 20.0102 22.0441 2.57495
724 1 20.0318 22.3083 3.48036
725 1 19.4323 22.004 4.1738
726 1 18.8267 21.8483 4.93329
727 1 19.5983 22.2825 5.30906
728 1 19.8366 21.7392 6.05376
729 1 19.2093 21.7575 6.75887
730 1 19.2756 21.9423 7.70158
731 1 19.5252 21.722 8.59723
732 1 19.371 21.3696 9.44727
733 1 19.7708 21.9444 10.1157
734 1 18.8892 22.2966 10.0701
735 1 19.2501 22.7527 10.8288
736 1 19.2187 22.7733 11.7955
737 1 22.5021 22.1978 2.02169
738 1 22.8773 21.3485 1.74915
739 1 22.313 21.1217 2.48367
740 1 22.7559 20.9988 3.31993
741 1 22.1369 20.6892 3.97926
742 1 22.7702 21.0081 4.62237
743 1 23.1373 21.4757 5.36983
744 1 22.7873 21.3197 6.24242
745 1 22.766 21.7036 7.11364
746 1 22.7544 21.9218 8.04902
747 1 23.5783 22.0064 8.56078
748 1 23.1036 21.385 9.08336
749 1 23.661 21.8524 9.69288
750 1 22.8694 22.2973 9.97972
751 1 23.5062 22.8022 10.5035
752 1 23.5279 22.2885 11.3129
753 1 25.9406 21.5773 1.93392
754 1 25.8484 21.4907 2.87115
755 1 26.7262 21.6564 3.22715
756 1 27.0027 21.996 4.07341
757 1 26.7312 21.2532 4.6223
758 1 26.4292 22.1027 4.95084
759 1 26.8857 21.5579 5.60338
760 1 27.1476 21.5475 6.50908
761 1 26.9005 22.0758 7.25935
762 1 26.8221 21.3573 7.87805
763 1 27.5254 21.9007 8.26407
764 1 27.4144 22.0502 9.21599
765 1 26.7128 21.5649 9.6556
766 1 27.1603 22.1153 10.2771
767 1 26.3189 22.5514 10.4253
768 1 26.6263 22.0455 11.1862
769 1 -0.35032 26.7343 1.4237
770 1 -0.163572 26.6602 2.36869
771 1 -1.04072 26.5852 2.72751
772 1 -0.892553 27.1998 3.45702
773 1 -0.692388 26.4826 4.07034
774 1 -0.122567 26.9753 4.65947
775 1 -0.433649 26.2323 5.1956
776 1 -0.18854 26.2379 6.13409
777 1 0.239155 25.658 6.77871
778 1 -0.0115957 25.9179 7.67326
779 1 -0.3449 26.0663 8.56008
780 1 -0.736441 26.5772 9.25706
781 1 -0.831603 25.8241 9.8567
782 1 -0.0957502 25.9496 10.445
783 1 -0.746652 26.3001 11.0452
784 1 -0.309065 25.6765 11.6314
785 1 4.7311 26.2773 1.87356
786 1 4.79743 26.813 2.67025
787 1 4.05908 26.2287 2.8667
788 1 3.63204 26.0401 3.69846
789 1 4.12104 25.5285 4.34459
790 1 3.5843 25.5346 5.14412
791 1 4.51697 25.5927 5.4155
792 1 3.91971 25.7196 6.17513
793 1 4.1508 26.1119 7.02032
794 1 3.67139 26.0748 7.84824
795 1 4.61106 26.0517 8.07519
796 1 4.05439 25.9711 8.86819
797 1 4.15342 26.2526 9.78195
798 1 3.75591 25.4952 10.2148
799 1 3.77277 25.7799 11.1352
800 1 3.16109 26.0746 11.8166
801 1 7.66995 26.0908 1.90945
802 1 6.77514 26.1508 2.26988
803 1 7.202 25.5998 2.94386
804 1 7.86144 26.3009 2.89858
805 1 8.0338 26.0379 3.79198
806 1 7.94576 26.4984 4.61284
807 1 7.17918 26.6289 5.20456
808 1 8.01829 26.8019 5.63391
809 1 7.50262 26.2448 6.24673
810 1 8.04366 26.2704 7.05551
811 1 8.24337 25.8826 7.91833
812 1 7.93596 25.5283 8.77565
813 1 8.26605 25.5599 9.69383
814 1 7.79852 25.588 10.5164
815 1 8.45055 26.2961 10.5357
816 1 8.88136 27.032 11.0155
817 1 11.5847 27.0161 1.34193
818 1 10.9077 27.2995 1.95583
819 1 10.9208 26.6361 2.65812
820 1 10.2494 26.8212 3.32773
821 1 11.011 26.4791 3.86677
822 1 11.6106 26.828 4.56449
823 1 11.5181 26.5076 5.48379
824 1 11.4466 26.1457 6.39563
825 1 12.1476 26.7041 6.7838
826 1 11.5272 26.497 7.48306
827 1 11.3786 26.5493 8.41579
828 1 12.0285 26.5638 9.10507
829 1 12.0755 26.0986 9.96331
830 1 12.7854 25.46 9.81208
831 1 12.9616 25.8701 10.6655
832 1 12.0884 25.9664 11.0397
833 1 15.6698 25.6945 1.74275
834 1 16.0323 25.6419 2.62533
835 1 15.6398 25.9433 3.44087
836 1 16.0872 25.5506 4.19994
837 1 15.9931 26.4746 4.40292
838 1 15.3737 26.0223 4.94276
839 1 15.5946 26.6668 5.60533
840 1 16.3527 26.2466 6.02548
841 1 15.693 25.7518 6.53767
842 1 15.6286 26.4673 7.18501
843 1 15.5873 26.1857 8.10327
844 1 16.0535 25.6781 8.77024
845 1 15.3198 26.0773 9.2586
846 1 15.1661 26.2666 10.1775
847 1 14.397 25.916 10.6024
848 1 13.795 25.8113 9.86543
849 1 19.941 26.6903 2.05807
850 1 19.749 26.301 2.9084
851 1 19.9921 26.467 3.81678
852 1 19.4943 25.6686 4.03149
853 1 19.1875 26.4603 4.47728
854 1 19.1249 25.6736 5.02224
855 1 19.8289 26.0961 5.55138
856 1 19.4437 25.6559 6.3207
857 1 19.4616 25.6874 7.296
858 1 19.3096 26.1561 8.1409
859 1 20.0792 25.9162 8.66905
860 1 19.5454 25.117 8.67791
861 1 19.0048 25.5798 9.30922
862 1 19.855 25.7662 9.72125
863 1 19.8207 26.7217 9.62823
864 1 19.5042 26.441 10.5015
865 1 24.0254 26.6687 1.40453
866 1 23.5744 26.7636 2.24752
867 1 23.4784 27.1367 3.118
868 1 23.0896 27.3559 3.96467
869 1 22.8573 26.4238 4.11648
870 1 22.5804 26.8716 4.92903
871 1 22.1245 26.7974 5.77495
872 1 22.8844 26.3441 6.16363
873 1 22.5215 26.5477 7.03449
874 1 22.1095 26.0195 7.75327
875 1 22.5778 26.7785 8.05273
876 1 23.0201 26.6586 8.88765
877 1 22.2623 26.4241 9.41746
878 1 23.0396 26.369 9.96943
879 1 23.1704 26.0121 10.848
880 1 23.89 25.6398 11.3656
881 1 26.6842 27.2651 1.74408
882 1 26.3958 26.49 2.25776
883 1 26.8232 26.0653 3.02565
884 1 25.9924 25.974 3.51156
885 1 26.7082 26.1814 4.11102
886 1 26.9174 25.823 4.95729
887 1 26.5572 25.7736 5.8574
888 1 26.9869 25.861 6.73905
889 1 26.7857 25.8995 7.68514
890 1 27.5946 25.9548 8.19684
891 1 27.0334 26.2468 8.91689
892 1 27.5587 25.8513 9.61287
893 1 27.704 26.8041 9.6797
894 1 26.9888 26.7323 10.3176
895 1 26.4425 26.8508 11.1232
896 1 26.9885 27.5857 11.4254
897 2 1.4098 2.98936 19.2905
898 2 1.05279 2.11349 19.4159
899 2 1.10613 2.31285 20.347
900 2 1.06799 1.55124 20.934
901 2 1.19669 2.38817 21.4069
902 2 1.68053 1.6726 21.8134
903 2 1.36493 2.11887 22.6104
904 2 1.72802 2.18887 23.4733
905 2 2.04752 2.36389 24.3545
906 2 2.22661 3.19064 24.8285
907 2 2.08202 2.4798 25.4664
908 2 1.95943 3.07645 26.1984
909 2 2.43504 2.2549 26.4364
910 2 1.86583 2.52434 27.1397
911 2 2.564 2.12399 27.6435
912 2 2.33974 1.29084 28.1352
913 2 5.10114 1.98159 19.1202
914 2 5.21908 2.93818 19.1591
915 2 5.9369 2.88505 19.791
916 2 5.07991 2.59595 20.1321
917 2 5.49152 3.05134 20.903
918 2 5.61216 2.53926 21.7222
919 2 5.29196 2.43015 22.6284
920 2 5.1203 1.98312 23.4736
921 2 5.49599 1.67532 24.2953
922 2 5.39182 1.40344 25.1994
923 2 5.41518 2.21752 25.6959
924 2 5.43008 1.48795 26.2967
925 2 5.63339 1.51144 27.2354
926 2 5.35208 2.43432 27.1084
927 2 5.4611 2.23693 28.0579
928 2 5.44819 1.34595 28.3765
929 2 9.08456 2.87806 18.5078
930 2 9.78631 3.02265 19.1497
931 2 9.55009 2.76173 20.037
932 2 10.2758 2.36634 20.5375
933 2 9.53012 2.61001 21.0913
934 2 9.91753 2.11441 21.8145
935 2 9.49143 1.65198 22.5509
936 2 9.86118 1.47082 23.4463
937 2 9.87303 1.17042 24.3714
938 2 9.62407 2.01739 24.721
939 2 9.93605 1.73877 25.5782
940 2 9.69927 2.07607 26.4612
941 2 10.4847 1.52617 26.5888
942 2 10.6288 2.16481 27.294
943 2 9.8747 1.90597 27.8511
944 2 9.36553 1.38534 28.4932
945 2 13.4245 2.53801 18.3798
946 2 13.8354 2.76798 19.211
947 2 13.3305 1.99039 19.4735
948 2 12.7688 2.46249 20.0751
949 2 13.083 2.05252 20.8857
950 2 12.5652 2.05427 21.6882
951 2 13.2976 1.76554 22.2488
952 2 12.7999 2.10614 23.0077
953 2 12.9469 2.22201 23.9419
954 2 12.2364 1.87209 24.4832
955 2 12.8123 2.21374 25.1771
956 2 12.504 2.28557 26.0859
957 2 13.1354 2.5943 26.7349
958 2 12.8178 3.03202 27.537
959 2 12.8174 2.74359 28.4634
960 2 12.409 3.49314 28.9089
961 2 17.8961 1.43513 18.8314
962 2 17.5816 1.3107 19.727
963 2 18.0208 0.924079 20.4837
964 2 18.2229 1.24997 21.3706
965 2 17.8646 0.824939 22.1517
966 2 18.0849 1.71959 22.4371
967 2 17.589 1.3371 23.1607
968 2 18.1999 1.88784 23.6505
969 2 18.15 1.75076 24.6131
970 2 17.8797 2.63049 24.9765
971 2 17.8301 2.70015 25.9471
972 2 17.9633 2.53822 26.8962
973 2 17.1679 2.18112 27.2877
974 2 17.4773 2.4303 28.1585
975 2 17.2708 2.22743 29.0568
976 2 16.6608 2.96785 29.2194
977 2 22.1926 2.19391 19.4113
978 2 21.6124 1.45034 19.539
979 2 21.3157 1.45565 20.4582
980 2 20.6007 2.0923 20.4782
981 2 21.2198 2.20013 21.1876
982 2 21.7737 2.26116 21.9726
983 2 21.0491 1.6601 22.109
984 2 21.453 1.9126 22.9556
985 2 21.3548 1.67229 23.8673
986 2 21.3581 1.77938 24.816
987 2 21.6227 1.42705 25.653
988 2 22.2084 2.07831 25.9937
989 2 21.6054 1.99711 26.7351
990 2 21.7279 2.41532 27.5852
991 2 22.361 3.02168 27.9778
992 2 22.4616 2.22317 28.5084
993 2 24.6803 2.91245 19.59