ITEM: TIMESTEP
1000
ITEM: NUMBER OF ATOMS
600
ITEM: BOX BOUNDS pp pp pp
0.0000000000000000e+00 3.2000000000000000e+01
0.0000000000000000e+00 3.2000000000000000e+01
0.0000000000000000e+00 3.2000000000000000e+01
ITEM: ATOMS id type xu yu zu
1 1 0.120357 -1.23496 6.23012
2 1 0.810065 -0.760187 5.6116
3 1 0.188354 -0.805978 4.91681
4 1 -0.183391 -0.146855 4.39209
5 1 -0.50623 0.517607 4.92819
6 1 -0.378206 1.41235 5.14389
7 1 -1.09646 1.4666 5.72533
8 1 -0.899641 0.703833 6.30897
9 1 -0.018093 0.428496 6.40208
10 1 0.35428 0.623119 5.50767
11 1 5.8639 -1.28527 4.47283
12 1 5.58711 -0.324075 4.73973
13 1 5.67613 -0.788706 5.74561
14 1 5.04304 -1.39177 6.25854
15 1 4.70894 -0.714874 6.96143
16 1 5.0613 -0.61808 7.90893
17 1 5.74918 -0.132948 7.39503
18 1 6.03663 0.217235 8.21231
19 1 6.7952 0.109918 8.77704
20 1 7.6144 0.37263 8.35786
21 1 9.19296 0.819423 8.5827
22 1 8.30939 1.25905 8.43071
23 1 8.5521 1.21601 7.57861
24 1 9.37719 0.716246 7.55275
25 1 9.94729 0.553512 6.7966
26 1 10.5291 1.1337 7.41796
27 1 11.1583 0.464869 7.75431
28 1 10.2759 0.193696 7.70062
29 1 10.6554 -0.275618 6.92917
30 1 9.76194 -0.717115 7.26483
31 1 17.0985 -3.31613 3.03032
32 1 16.8152 -2.42013 2.82067
33 1 15.898 -2.42464 2.96063
34 1 16.022 -1.85325 3.70938
35 1 16.1902 -0.868792 3.50831
36 1 16.0999 0.0814966 3.08072
37 1 16.5398 0.904323 2.7996
38 1 15.5985 1.07655 2.87172
39 1 16.0064 1.84103 3.30625
40 1 15.8579 2.22344 4.20957
41 1 17.5065 1.73925 4.68767
42 1 18.0772 0.870756 4.93952
43 1 18.984 0.727657 5.08615
44 1 19.063 1.50412 5.72986
45 1 18.4579 0.968744 6.19321
46 1 18.6742 0.123254 6.4896
47 1 17.696 0.11335 6.36051
48 1 18.1014 -0.742327 6.54213
49 1 18.8504 -1.34903 6.67684
50 1 18.2853 -1.76346 6.04708
51 1 27.606 0.646083 5.09181
52 1 28.1418 -0.134771 4.92951
53 1 27.8439 -0.25603 5.89088
54 1 27.4202 -0.819143 6.56256
55 1 27.8641 -0.427371 7.3237
56 1 26.9961 -0.742321 7.64317
57 1 26.9122 0.184583 8.04364
58 1 27.5817 0.893478 8.20946
59 1 26.9453 0.923796 8.9197
60 1 26.2079 0.924874 9.50246
61 1 -0.0332146 4.15756 3.60828
62 1 0.748672 4.74525 3.56947
63 1 -0.0244786 5.43713 3.55801
64 1 0.142855 5.9053 4.41636
65 1 0.35237 4.99178 4.62022
66 1 -0.450985 5.32957 5.15016
67 1 -0.551246 5.30949 6.10254
68 1 -0.3631 5.90921 6.79203
69 1 -1.33123 6.05745 6.61686
70 1 -0.913142 6.66912 6.10606
71 1 5.59124 6.48549 6.08324
72 1 5.0018 6.84348 5.4299
73 1 4.29511 7.37963 5.88352
74 1 3.91064 6.32175 5.61536
75 1 4.3213 5.5476 5.12509
76 1 5.14433 5.38175 5.84105
77 1 5.90308 5.32025 5.10606
78 1 6.22702 4.35277 5.29376
79 1 7.022 4.29402 5.76319
80 1 7.08978 5.20964 5.85833
81 1 9.66681 6.099 4.86033
82 1 9.3944 7.03639 5.07994
83 1 9.70464 6.52521 5.82519
84 1 8.57241 6.40438 5.62111
85 1 8.46205 6.89118 6.4679
86 1 7.92454 6.14081 6.65047
87 1 7.12799 6.18842 7.26726
88 1 7.28902 5.33182 6.87519
89 1 6.38247 5.26188 6.88487
90 1 6.19078 5.37526 7.83773
91 1 15.6999 10.6095 3.72429
92 1 15.4112 10.6386 4.72947
93 1 16.3835 10.5137 4.53661
94 1 16.9718 9.75612 4.8508
95 1 17.4451 9.01707 5.2032
96 1 17.5757 8.08497 5.16817
97 1 17.4043 7.26065 5.76109
98 1 17.2882 6.83104 6.61375
99 1 16.9455 7.22055 7.49185
100 1 17.1335 7.99829 6.89994
101 1 18.6202 7.70007 6.46115
102 1 19.3352 6.91857 6.75809
103 1 20.0374 6.7228 6.15136
104 1 19.3669 6.06121 6.0648
105 1 19.8696 5.70791 6.77351
106 1 20.6501 5.38664 6.47349
107 1 20.5273 4.94224 7.40595
108 1 20.5093 5.89407 7.672
109 1 21.0581 6.41019 7.15374
110 1 22.0336 6.54179 7.25354
111 1 27.3197 4.25167 4.48825
112 1 27.4148 4.95636 5.02761
113 1 26.8381 5.14614 5.80009
114 1 26.6056 4.36605 5.27229
115 1 27.1492 4.10134 6.00262
116 1 27.4848 3.39619 6.57693
117 1 26.8201 4.05197 6.90899
118 1 27.6466 4.40062 7.24089
119 1 27.8567 5.03494 6.56176
120 1 28.2337 4.53536 5.88846
121 1 0.508126 11.3181 5.73434
122 1 0.403038 11.9264 6.61219
123 1 0.360109 12.8741 6.45319
124 1 -0.584325 13.3162 6.56338
125 1 -0.419587 14.2768 6.6754
126 1 0.181416 14.0636 7.39558
127 1 0.931201 14.518 6.96513
128 1 1.24195 13.5834 6.99689
129 1 2.01803 13.1051 7.36357
130 1 2.68901 12.6244 6.81292
131 1 2.30047 13.7321 4.97324
132 1 2.96659 13.2517 4.58498
133 1 3.90619 12.8773 4.35113
134 1 4.1582 13.7691 4.26489
135 1 4.01472 13.9459 5.21222
136 1 3.8609 14.6072 5.87872
137 1 4.28797 15.5782 5.69457
138 1 4.7096 15.1783 6.51811
139 1 4.52756 15.1624 7.49301
140 1 5.27401 15.6867 7.41766
141 1 7.40255 13.6653 4.49824
142 1 8.38037 13.6684 4.25144
143 1 9.32837 13.713 4.48304
144 1 10.1227 13.5275 4.99378
145 1 10.281 13.6373 5.97516
146 1 11.0688 13.4101 6.47118
147 1 11.381 13.3996 5.55134
148 1 11.3741 14.293 5.839
149 1 12.2517 14.0633 5.50365
150 1 12.4947 13.1747 5.63116
151 1 15.1567 13.0488 6.52128
152 1 15.0161 12.2771 5.93638
153 1 15.6254 11.6426 5.34486
154 1 14.7806 11.4162 5.03365
155 1 14.8995 11.2389 6.05597
156 1 14.4019 11.7544 6.78565
157 1 14.8186 12.4549 7.50994
158 1 15.7205 12.6499 7.31064
159 1 16.5149 12.1063 7.05437
160 1 17.2332 12.5064 6.7687
161 1 21.6588 11.8032 9.01457
162 1 21.464 12.3652 8.20978
163 1 21.5451 13.2328 7.90754
164 1 21.4355 13.3566 6.96931
165 1 20.4388 13.3858 7.36497
166 1 20.7248 14.1434 7.76851
167 1 21.5481 14.4533 7.4717
168 1 22.1466 14.6089 8.32036
169 1 21.5826 15.2784 8.54924
170 1 21.1108 16.0465 8.21601
171 1 26.63 13.1844 5.50286
172 1 26.6886 12.3263 5.90649
173 1 26.9445 11.5951 6.40526
174 1 26.2936 11.6784 7.02635
175 1 25.7637 11.1976 7.61806
176 1 25.1607 10.5033 7.47261
177 1 24.9117 11.241 6.77887
178 1 23.9372 11.4777 6.82502
179 1 24.4479 12.309 7.04618
180 1 25.3615 12.4253 7.00206
181 1 -2.02773 18.3892 5.41401
182 1 -1.36319 19.1304 5.239
183 1 -0.50773 19.3612 4.97236
184 1 -0.152011 19.2011 5.84815
185 1 -0.564783 18.3805 5.50092
186 1 -0.680315 18.6609 6.55856
187 1 -1.52751 18.2106 6.37103
188 1 -1.00288 17.4451 6.66701
189 1 -0.444122 17.333 7.48549
190 1 -0.924804 18.0587 7.82284
191 1 5.80789 17.1563 4.30526
192 1 5.55553 17.5103 5.24492
193 1 5.50431 18.0443 4.48916
194 1 4.82617 18.2902 5.10746
195 1 4.36342 17.6818 4.60342
196 1 4.00528 16.9198 4.10586
197 1 3.53371 16.4027 4.72369
198 1 2.89454 16.8629 4.18752
199 1 2.54993 17.3997 4.87883
200 1 2.71031 17.9824 5.58087
201 1 8.87921 19.452 4.83196
202 1 8.82592 20.3893 5.05943
203 1 9.25233 21.2938 5.14749
204 1 9.70213 20.7887 4.47419
205 1 9.9674 20.042 5.11475
206 1 10.0705 19.6864 5.9759
207 1 11.0188 19.5801 5.69169
208 1 11.6062 19.8944 4.98836
209 1 11.9938 20.7859 4.9051
210 1 12.6707 21.483 4.62525
211 1 14.2879 19.0687 6.67556
212 1 14.3735 18.4663 7.45545
213 1 14.2119 18.0596 6.53523
214 1 13.8851 17.3007 5.98077
215 1 13.1496 17.422 5.29733
216 1 13.8383 17.5871 4.63595
217 1 14.3937 17.959 5.28355
218 1 13.5977 18.5411 5.3965
219 1 13.1816 18.5959 6.25831
220 1 12.2091 18.5634 6.53655
221 1 20.8509 15.0971 4.23349
222 1 20.8602 16.0966 4.38421
223 1 20.7764 15.8601 5.43239
224 1 21.0609 15.783 6.42351
225 1 21.518 16.7428 6.1547
226 1 20.8027 17.1773 6.77417
227 1 20.5448 17.0876 5.89885
228 1 20.3949 16.9226 5.01648
229 1 19.5529 16.404 5.11766
230 1 20.0323 16.1433 5.98474
231 1 26.8569 16.9186 6.40929
232 1 26.767 16.499 5.42968
233 1 27.1961 15.8926 4.84333
234 1 26.3722 15.3488 4.93033
235 1 25.7335 15.9223 5.19807
236 1 25.4486 15.4066 4.27068
237 1 25.0629 14.9587 5.00304
238 1 24.1866 14.7158 4.72585
239 1 24.0054 14.2243 3.91785
240 1 25.0131 14.3278 3.90781
241 1 1.3377 27.8195 3.92487
242 1 1.74349 27.964 3.00052
243 1 2.67017 27.5336 2.8863
244 1 2.25339 26.7151 3.12305
245 1 1.33361 26.9852 2.80382
246 1 1.16209 26.8063 3.8348
247 1 1.25975 26.6112 4.78271
248 1 0.867703 26.3532 5.75065
249 1 1.82368 26.1478 5.40206
250 1 1.83176 25.2853 4.80008
251 1 6.60997 22.7956 5.05758
252 1 6.13572 22.2066 4.52706
253 1 5.90771 21.8121 5.39878
254 1 5.15453 21.8632 4.84873
255 1 4.65179 22.3588 5.48805
256 1 5.09373 23.1644 4.95616
257 1 5.78815 22.8147 5.57952
258 1 5.24561 23.3848 6.1156
259 1 5.62045 23.3167 7.02402
260 1 5.8062 22.4265 6.64967
261 1 11.0935 25.1619 4.67245
262 1 10.9458 24.5485 5.38782
263 1 10.5957 23.8873 4.78781
264 1 9.85733 24.5032 4.83521
265 1 9.59652 25.0961 5.55772
266 1 10.2553 24.7545 6.27484
267 1 10.2387 24.7157 7.34376
268 1 11.1267 24.7614 6.90977
269 1 11.1903 25.5981 6.46929
270 1 10.8958 26.4822 6.37827
271 1 12.0662 24.0959 4.45863
272 1 12.9549 24.1149 3.94735
273 1 12.7891 25.089 3.8783
274 1 13.4325 25.4717 4.45895
275 1 13.8293 25.1337 5.27348
276 1 14.2196 25.542 6.08908
277 1 14.2119 24.6344 6.36215
278 1 15.2188 24.4738 6.07565
279 1 15.5422 25.1472 5.59471
280 1 15.6375 25.704 4.80657
281 1 19.2451 26.3661 4.16444
282 1 19.5006 25.3516 4.51765
283 1 18.5955 24.9923 4.69635
284 1 18.4129 25.1499 5.63189
285 1 18.759 26.0374 5.41746
286 1 17.8035 25.915 5.87854
287 1 17.1049 25.4998 5.17164
288 1 16.472 24.7162 5.16473
289 1 17.0444 24.8195 4.37996
290 1 16.5754 24.4719 3.67226
291 1 26.25 25.492 1.92967
292 1 25.7821 26.1325 2.43109
293 1 25.905 25.6228 3.34881
294 1 26.8261 25.8427 3.11763
295 1 27.1494 25.7505 3.95766
296 1 27.6816 26.5062 3.74622
297 1 27.1532 26.7135 4.55551
298 1 27.5783 26.743 5.46359
299 1 27.1247 27.5446 5.15503
300 1 26.4039 27.439 5.80796
301 2 0.307302 1.39685 21.2033
302 2 0.955991 1.57886 21.8963
303 2 0.476759 2.2832 22.3425
304 2 1.22562 2.95173 22.3537
305 2 0.890891 3.71352 22.8581
306 2 0.0247266 4.13549 22.917
307 2 0.0998192 3.59864 23.7102
308 2 0.44583 4.02793 24.5555
309 2 0.0291456 4.514 25.2204
310 2 -0.220135 4.44883 26.1748
311 2 4.92463 1.9825 20.7168
312 2 5.76511 1.47933 20.461
313 2 5.8203 1.25263 21.5575
314 2 5.91499 0.991671 22.5161
315 2 5.81392 1.74255 23.1747
316 2 6.71682 1.30742 23.3881
317 2 6.93346 2.21714 23.6297
318 2 6.64054 3.03917 23.311
319 2 6.99043 3.83255 23.8361
320 2 7.37932 3.26109 24.449
321 2 13.8628 4.82849 22.6634
322 2 14.1705 5.56083 23.2436
323 2 14.8624 4.96695 23.6793
324 2 14.9649 3.98282 23.3849
325 2 14.8148 3.17067 23.9213
326 2 14.1143 2.54621 24.2206
327 2 13.7034 3.41403 24.3638
328 2 13.994 3.44997 25.2175
329 2 13.1606 2.87778 25.1713
330 2 12.9759 3.92011 25.3924
331 2 16.0204 4.13496 22.3715
332 2 16.1233 3.35139 22.8913
333 2 16.815 3.37537 22.1946
334 2 17.5518 3.2516 22.8848
335 2 18.3173 2.90384 23.229
336 2 18.765 2.26348 23.8071
337 2 19.3213 2.88187 23.4262
338 2 20.178 3.3388 23.369
339 2 20.8491 4.13917 23.4725
340 2 21.2102 3.91112 24.2826
341 2 22.1043 4.76232 20.3567
342 2 21.4607 4.09108 20.1173
343 2 20.7399 4.75173 20.0677
344 2 20.3148 4.67604 21.0119
345 2 20.5304 5.02552 21.9828
346 2 19.8713 5.61482 22.2702
347 2 19.9564 4.64105 22.8073
348 2 19.4749 5.31043 23.338
349 2 19.8331 5.65853 24.1205
350 2 20.4743 5.59499 23.3834
351 2 27.1997 4.90353 23.1435
352 2 27.0145 4.33255 22.4041
353 2 27.1087 3.66045 21.6225
354 2 27.3518 3.27989 22.5088
355 2 27.3341 2.65414 23.1876
356 2 28.0587 2.3678 22.6418
357 2 27.6482 1.52186 22.549
358 2 28.5922 1.51332 22.6089
359 2 28.522 1.97156 23.602
360 2 29.458 1.67131 23.4906
361 2 1.82043 9.0949 22.2073
362 2 0.914554 9.50419 22.0538
363 2 0.663471 8.53741 22.0707
364 2 1.09544 7.8005 22.5975
365 2 1.31191 7.32296 23.341
366 2 2.14507 7.75456 22.9831
367 2 2.23353 8.74021 22.9913
368 2 1.31547 8.67947 23.2847
369 2 1.72733 8.24996 23.9821
370 2 1.27715 8.58327 24.7974
371 2 3.56913 10.816 24.2982
372 2 4.48968 10.538 24.2144
373 2 5.15707 9.89057 23.8267
374 2 6.03133 9.66823 24.1729
375 2 5.81208 9.36193 25.0374
376 2 5.83014 8.62269 25.5662
377 2 6.47401 9.16383 26.0715
378 2 6.86526 9.64443 26.7907
379 2 6.86267 10.602 26.5515
380 2 6.76225 10.116 25.6964
381 2 15.2533 10.4189 22.3566
382 2 14.7572 10.2847 23.1862
383 2 15.0533 10.7321 24.1323
384 2 14.3495 10.5659 24.7234
385 2 13.435 10.5706 24.3518
386 2 13.235 9.69547 24.0479
387 2 12.8875 9.92161 24.9157
388 2 12.1618 9.35578 25.279
389 2 11.2147 9.45126 25.3598
390 2 11.2949 8.44533 25.3156
391 2 16.8182 7.5978 24.7107
392 2 17.6106 7.54852 24.0464
393 2 17.1205 8.32682 24.098
394 2 17.5406 8.99313 23.5197
395 2 18.2273 9.56935 23.8485
396 2 17.8483 8.99794 24.5022
397 2 17.1299 9.62861 24.3622
398 2 16.1915 9.9499 24.0853
399 2 16.1362 8.9635 23.8084
400 2 15.1803 8.59836 23.8924
401 2 21.4983 10.5002 25.2485
402 2 21.8549 10.6164 24.4332
403 2 21.4473 9.83124 24.3233
404 2 21.1801 9.55949 23.4094
405 2 20.7159 8.85934 23.7675
406 2 20.4259 8.66303 24.6307
407 2 20.6521 9.60172 24.8223
408 2 20.6934 9.25312 25.7067
409 2 21.0948 8.57028 26.1311
410 2 21.6771 8.94331 26.8635
411 2 30.2612 8.0856 24.6974
412 2 29.3467 8.21509 24.8734
413 2 29.7085 8.97706 24.3624
414 2 29.7214 9.65986 25.1005
415 2 30.755 9.5769 25.222
416 2 31.4558 9.04436 24.9386
417 2 30.9276 8.72889 24.2397
418 2 31.7966 8.44283 24.005
419 2 32.06 8.90261 23.2219
420 2 31.0566 9.12273 23.1063
421 2 1.606 14.8136 23.5634
422 2 2.02037 15.6587 23.2473
423 2 2.21342 16.467 23.7976
424 2 2.09667 16.5293 24.6889
425 2 2.53974 15.6754 24.5431
426 2 2.56002 14.9946 23.7411
427 2 3.20623 14.3741 24.1118
428 2 3.42099 13.8779 23.3635
429 2 4.02038 13.2654 23.7195
430 2 4.69881 13.7516 23.1677
431 2 9.81651 14.4392 24.3927
432 2 10.4281 15.0954 24.1421
433 2 10.0647 15.8349 23.6286
434 2 9.35705 15.1579 23.7426
435 2 8.63921 15.6836 23.3757
436 2 7.74421 15.9747 23.7541
437 2 7.53983 15.0322 23.6361
438 2 6.78921 14.3238 23.5467
439 2 7.22501 13.6926 24.1221
440 2 7.60387 14.3895 24.7317
441 2 12.7848 16.0055 22.265
442 2 12.8632 17.0961 22.4389
443 2 12.98 16.6101 23.3866
444 2 13.7885 16.2937 23.8004
445 2 13.5795 15.5475 24.4407
446 2 13.9036 14.8114 23.9333
447 2 12.9301 14.7536 24.3861
448 2 13.1672 13.9457 24.6933
449 2 12.6631 13.2957 25.0291
450 2 12.9947 12.8696 24.2463
451 2 20.1853 17.089 23.9175
452 2 20.9448 16.5841 24.3387
453 2 20.3068 16.0233 24.7528
454 2 19.3824 15.9117 24.652
455 2 19.3111 15.2191 25.2784
456 2 19.3874 15.2651 26.2233
457 2 20.2953 15.4731 25.987
458 2 20.2785 15.0665 26.891
459 2 19.4867 14.5206 27.0142
460 2 19.6974 15.0756 27.8316
461 2 24.3944 14.1759 23.0822
462 2 24.4787 14.3153 24.1269
463 2 23.69 14.838 24.1105
464 2 24.1938 15.3409 24.7159
465 2 23.9268 16.1845 24.436
466 2 24.593 16.6884 24.8548
467 2 24.8786 16.4842 23.9689
468 2 24.5171 17.3908 23.9316
469 2 25.3521 17.4919 23.5886
470 2 24.8325 17.961 22.997
471 2 28.8491 13.6177 23.0464
472 2 28.5149 13.0697 22.4915
473 2 28.6594 12.7775 23.4461
474 2 27.8111 12.8963 23.8076
475 2 27.0022 13.4474 24.1466
476 2 26.4631 14.3453 23.9054
477 2 26.1079 14.2053 24.9132
478 2 26.462 15.1441 24.9757
479 2 26.4217 14.975 25.9172
480 2 27.2701 15.3362 25.7876
481 2 3.19687 20.0429 21.3819
482 2 3.47869 20.1485 22.3102
483 2 2.77489 20.8645 22.1152
484 2 3.31304 21.1488 22.918
485 2 3.6645 21.9795 22.5861
486 2 4.46904 21.4866 22.6689
487 2 4.59902 20.9826 21.8896
488 2 5.39704 20.3564 21.9721
489 2 5.30509 20.5887 21.0068
490 2 4.47869 20.206 21.4461
491 2 7.34 20.2663 20.4074
492 2 6.93832 21.1339 20.7787
493 2 7.74183 21.205 21.2565
494 2 7.45273 21.5285 22.0985
495 2 7.4095 22.5065 22.5283
496 2 6.79307 22.0161 23.0154
497 2 5.74557 21.9266 22.8136
498 2 5.9547 21.371 22.0973
499 2 6.14767 22.0402 21.4259
500 2 5.20332 21.8657 21.4902
501 2 11.4502 20.3829 23.0921
502 2 11.9017 20.13 23.8614
503 2 12.1326 20.697 24.5671
504 2 12.7173 21.3047 24.0841
505 2 13.5634 21.6354 24.0641
506 2 14.3038 22.0489 23.5185
507 2 14.1814 22.9282 24.0356
508 2 14.5652 22.1584 24.4615
509 2 14.5903 21.1669 24.6014
510 2 14.5384 20.4542 24.0415
511 2 16.0801 19.309 23.85
512 2 17.039 19.4734 23.598
513 2 17.549 19.4531 24.4079
514 2 17.1751 19.5386 25.3455
515 2 18.0474 19.9481 25.2948
516 2 17.9915 19.6596 26.2046
517 2 17.5477 18.7706 26.188
518 2 16.821 19.0225 26.7731
519 2 17.6824 18.7091 27.2226
520 2 17.6759 19.6289 27.5225
521 2 25.039 23.6659 24.711
522 2 24.644 23.3823 23.8935
523 2 23.6923 23.1649 24.046
524 2 24.1615 22.5062 24.6198
525 2 23.811 21.8413 25.372
526 2 24.6024 21.4929 25.9571
527 2 23.7772 21.4376 26.3821
528 2 22.9942 20.768 26.2522
529 2 23.3667 20.1758 25.5531
530 2 24.322 20.3296 25.5047
531 2 29.8459 19.1767 22.7371
532 2 30.1357 20.1184 22.616
533 2 29.3555 20.6985 22.5766
534 2 28.8069 21.3863 22.8817
535 2 28.8738 21.4656 23.8766
536 2 29.2098 20.8514 24.5368
537 2 29.7329 20.0979 24.0472
538 2 30.0189 19.4619 24.9104
539 2 29.5202 18.6666 25.2633
540 2 28.7925 18.5829 24.7522
541 2 4.07022 27.5186 21.8397
542 2 3.0712 27.7226 21.8107
543 2 3.47977 26.8622 22.1916
544 2 3.52718 27.0763 23.0715
545 2 3.14596 27.8856 22.8709
546 2 2.84129 28.1752 23.7312
547 2 2.67909 28.6819 24.5396
548 2 1.89212 29.1925 24.1995
549 2 1.37475 30.0001 23.7744
550 2 1.34795 29.1832 23.106
551 2 8.43961 26.7979 23.0995
552 2 8.08655 25.8263 23.3168
553 2 7.60578 26.3705 23.9724
554 2 7.2002 25.6442 24.4489
555 2 7.86462 25.3497 25.061
556 2 8.1444 25.9078 25.8211
557 2 7.79728 26.6653 25.3178
558 2 6.94517 26.9396 25.0086
559 2 6.21546 27.4716 24.6683
560 2 6.54268 27.4552 23.7985
561 2 12.6991 25.9013 22.6946
562 2 12.8545 25.4923 23.6313
563 2 13.2749 26.3039 23.929
564 2 12.7953 26.9802 23.5096
565 2 11.9494 26.8813 23.8787
566 2 11.5393 27.7653 23.8554
567 2 11.7132 28.2755 23.0703
568 2 12.7429 28.1715 22.9935
569 2 13.6405 28.7125 22.8523
570 2 14.0976 29.5214 23.1837
571 2 19.3781 25.9562 22.5774
572 2 19.5701 26.8295 23.0187
573 2 18.6329 27.2934 22.9412
574 2 18.2232 26.6902 23.51
575 2 18.3686 25.6748 23.7645
576 2 18.0979 24.8083 23.9051
577 2 18.3684 24.4855 23.1359
578 2 17.4587 24.0702 23.5393
579 2 16.5477 23.6683 23.5821
580 2 15.7085 24.1096 23.2704
581 2 21.8587 28.5057 22.3391
582 2 22.5591 28.4771 21.6634
583 2 22.3342 27.5768 21.5245
584 2 21.2696 27.487 21.483
585 2 21.7513 27.2553 22.2573
586 2 20.9104 26.8424 22.3581
587 2 20.9725 26.6245 23.2732
588 2 21.6714 27.1516 23.5601
589 2 22.0139 27.9691 24.0433
590 2 21.4349 28.4218 24.626
591 2 29.2637 26.1429 26.3588
592 2 28.6885 25.4668 25.9659
593 2 27.9034 25.9872 26.3666
594 2 27.8194 26.4627 25.4795
595 2 27.9925 27.5491 25.3633
596 2 27.1213 27.9102 24.8455
597 2 27.054 26.8845 24.9382
598 2 26.8777 27.2976 24.0114
599 2 26.2675 26.5842 24.1532
600 2 25.735 27.1258 24.763
ITEM: TIMESTEP
2000
ITEM: NUMBER OF ATOMS
600
ITEM: BOX BOUNDS pp pp pp
0.0000000000000000e+00 3.2000000000000000e+01
0.0000000000000000e+00 3.2000000000000000e+01
0.0000000000000000e+00 3.2000000000000000e+01
ITEM: ATOMS id type xu yu zu
1 1 1.47031 -1.60538 6.9563
2 1 1.23757 -0.779553 6.40951
3 1 1.55511 -0.274164 5.65696
4 1 2.11809 0.532581 5.96305
5 1 2.69775 -0.0955827 6.21774
6 1 2.42101 -0.521487 7.07685
7 1 3.28668 0.033115 7.06877
8 1 2.50514 0.546672 7.42714
9 1 2.74429 1.49254 7.43044
10 1 2.02236 1.40512 6.93595
11 1 6.1091 0.685715 7.9187
12 1 5.64051 0.204105 7.23481
13 1 5.07307 -0.60383 7.17315
14 1 4.85992 0.136341 7.86117
15 1 4.30113 0.0752059 7.17469
16 1 4.63239 1.01544 7.15756
17 1 5.43152 1.41699 7.53513
18 1 5.19788 1.92585 6.73126
19 1 5.66301 1.28666 6.23007
20 1 6.59958 1.25472 5.88574
21 1 7.82034 2.52282 6.76182
22 1 8.52534 2.6408 7.36091
23 1 7.86136 2.30259 8.04601
24 1 7.97913 2.52832 8.96037
25 1 8.82927 2.9043 8.76506
26 1 8.65793 2.68111 9.66966
27 1 9.40603 2.05376 9.60035
28 1 8.73351 1.70798 8.88204
29 1 9.53913 1.65759 8.23269
30 1 10.5272 1.86687 8.23344
31 1 18.9688 -0.593105 2.30707
32 1 18.7029 0.237744 2.93197
33 1 18.3083 -0.122879 3.76087
34 1 18.977 -0.749879 3.33576
35 1 18.8248 -1.65639 3.58424
36 1 18.3035 -1.80476 2.76892
37 1 18.1237 -1.15313 2.06836
38 1 17.2676 -1.01197 2.48146
39 1 16.5854 -1.50637 2.81398
40 1 15.8355 -1.0665 3.05176
41 1 18.0349 2.46529 5.05703
42 1 17.5919 2.259 5.82837
43 1 16.5994 2.28053 5.93657
44 1 16.4047 2.27557 6.84106
45 1 16.2281 1.65394 7.68257
46 1 15.9902 1.03222 8.42777
47 1 15.2665 0.470929 8.91627
48 1 14.7649 0.769018 8.21273
49 1 14.5436 1.7529 8.57968
50 1 15.4319 1.9702 8.87399
51 1 26.2182 0.485785 5.62849
52 1 25.6188 0.934472 4.97403
53 1 25.9513 1.48505 4.18966
54 1 25.3129 2.03924 4.61884
55 1 24.6433 2.43976 5.28903
56 1 25.0526 1.82761 5.8085
57 1 25.1908 0.851973 5.96353
58 1 24.7663 0.217501 6.56839
59 1 24.579 0.00863515 5.63113
60 1 24.7993 0.330684 4.72052
61 1 -4.67476 4.51869 3.74366
62 1 -3.85125 4.01101 3.89512
63 1 -4.27346 4.07457 4.87168
64 1 -4.01539 4.16486 5.78258
65 1 -3.61145 4.13484 6.68033
66 1 -2.82063 4.2014 7.2785
67 1 -1.83891 4.00278 7.71953
68 1 -1.74743 3.51919 6.87243
69 1 -2.47401 2.9159 6.68262
70 1 -1.65466 2.45103 7.02355
71 1 3.41045 6.47329 6.50923
72 1 3.93465 6.49493 5.67392
73 1 3.56137 5.65995 5.94034
74 1 4.0872 5.48417 5.181
75 1 4.71392 5.58413 5.89292
76 1 4.69728 4.60369 5.615
77 1 4.84616 3.86472 6.29523
78 1 5.32748 4.65424 6.50001
79 1 5.8376 5.50144 6.28408
80 1 5.86871 5.04277 5.51143
81 1 7.14412 9.07979 7.98171
82 1 7.29695 8.71152 7.10607
83 1 7.22391 8.16345 6.29891
84 1 6.6591 7.55233 5.78203
85 1 6.71986 7.13115 6.65732
86 1 6.2001 6.55379 7.28738
87 1 6.37376 6.29636 8.34681
88 1 6.79326 6.20349 9.20222
89 1 7.45829 6.02099 9.8901
90 1 8.20671 6.6349 10.2033
91 1 18.6845 11.6131 6.71248
92 1 17.918 11.146 7.2636
93 1 18.0711 10.2742 7.59952
94 1 18.2992 9.39159 8.25648
95 1 18.9701 9.08652 7.57133
96 1 19.9117 9.30395 7.4499
97 1 20.9049 9.4476 7.6131
98 1 20.3069 10.0459 8.10757
99 1 21.1583 10.3101 8.62907
100 1 20.6494 11.0561 8.60888
101 1 23.5993 6.88053 7.24094
102 1 23.3691 7.45755 6.3712
103 1 22.7367 8.21378 6.48799
104 1 22.2781 8.08493 5.73309
105 1 21.8185 7.27585 5.93875
106 1 21.4679 8.123 6.40124
107 1 21.9203 8.06783 7.34694
108 1 22.5423 7.25079 7.21367
109 1 21.7544 6.71004 7.50147
110 1 22.0075 7.45031 8.19945
111 1 26.8809 4.10132 2.27687
112 1 26.4765 3.30913 2.00263
113 1 26.7331 2.487 2.65988
114 1 27.6372 2.45002 2.49588
115 1 28.1807 2.18455 3.26252
116 1 27.5911 2.29853 4.08604
117 1 27.201 3.24177 3.95837
118 1 27.2917 3.02907 4.79302
119 1 26.3229 2.86952 4.63617
120 1 26.265 3.63489 5.26385
121 1 -1.68529 11.5345 8.14624
122 1 -1.62127 11.459 7.10315
123 1 -1.53016 11.1248 6.17001
124 1 -1.88025 10.6059 5.32568
125 1 -2.66376 10.1365 5.05082
126 1 -2.40105 9.39352 5.70072
127 1 -1.74941 9.59866 4.93861
128 1 -1.07691 10.1611 4.40986
129 1 -0.412829 10.5869 5.02216
130 1 -0.339131 11.3223 4.43718
131 1 6.05166 12.4341 7.66698
132 1 6.95256 12.2479 7.97862
133 1 6.37319 11.9253 8.59564
134 1 6.28661 12.8238 8.81372
135 1 5.49693 13.2928 9.23205
136 1 4.96024 13.9424 9.57528
137 1 5.03401 14.191 8.60479
138 1 4.60618 14.0074 7.67886
139 1 3.79773 13.7356 8.06351
140 1 4.41699 13.0638 8.23472
141 1 9.87588 14.8792 4.82009
142 1 9.37945 14.0364 5.25597
143 1 9.15229 14.7052 5.97062
144 1 10.0114 14.8672 5.7941
145 1 10.7649 15.073 5.25709
146 1 10.9423 14.1882 4.91262
147 1 10.8671 13.6224 4.12365
148 1 11.1519 12.7483 4.04796
149 1 10.619 12.4326 4.89141
150 1 9.97246 13.09 5.25054
151 1 16.1596 10.6035 7.78058
152 1 16.501 9.82682 7.22109
153 1 17.3608 9.76167 6.90983
154 1 18.0238 10.194 6.29418
155 1 17.7963 11.0561 5.8923
156 1 18.2479 10.9641 4.98263
157 1 17.6612 10.0744 5.12388
158 1 17.1613 10.8575 4.7458
159 1 17.1361 10.6181 3.82068
160 1 16.8745 10.9047 2.94832
161 1 21.6984 13.8507 9.2312
162 1 20.7342 13.2343 9.31056
163 1 20.1719 13.9574 9.0882
164 1 20.6881 14.0973 8.36888
165 1 21.1108 15.0631 8.26636
166 1 21.1475 15.1836 7.21544
167 1 21.4958 14.6861 6.50456
168 1 21.5739 13.6893 6.39032
169 1 22.3198 13.5179 5.92345
170 1 23.1063 13.4696 6.55289
171 1 25.7861 12.9488 8.05657
172 1 26.129 12.0083 8.05051
173 1 25.7828 11.1528 7.58421
174 1 25.6738 10.9831 6.65788
175 1 24.8456 10.5473 7.11195
176 1 24.454 11.3214 6.69925
177 1 24.4548 11.0198 5.80486
178 1 24.2049 11.9526 5.9031
179 1 23.3213 12.0649 6.19134
180 1 23.3479 12.7853 5.60359
181 1 -4.00538 22.103 5.2507
182 1 -3.09635 22.1612 5.6955
183 1 -2.79191 21.3107 6.01017
184 1 -1.90468 21.4211 6.28553
185 1 -1.29751 20.9644 6.86512
186 1 -2.20191 20.5268 6.98652
187 1 -2.93081 20.9768 7.37428
188 1 -3.29291 20.1017 7.71999
189 1 -2.64845 19.3345 7.43227
190 1 -3.48502 18.8127 7.27682
191 1 5.77559 18.9573 7.73492
192 1 5.54828 19.7993 7.44201
193 1 4.93635 19.1938 7.00609
194 1 4.10733 18.618 6.91446
195 1 4.47463 18.1784 7.76148
196 1 4.00287 19.0199 7.96385
197 1 3.16416 18.4457 7.67163
198 1 3.46727 17.6742 7.08561
199 1 2.72061 17.1681 6.95291
200 1 2.0056 17.6053 6.48122
201 1 12.0516 19.9334 3.96774
202 1 11.7636 19.6551 4.83415
203 1 10.8831 19.8911 5.22111
204 1 10.9972 20.478 4.4767
205 1 11.4755 21.3694 4.79312
206 1 10.7496 21.4967 4.18678
207 1 10.5536 20.6898 3.54246
208 1 11.4759 20.9572 3.39976
209 1 12.4532 20.8632 3.73857
210 1 12.4609 21.8076 3.98412
211 1 13.8857 17.4351 7.22273
212 1 13.0386 17.3956 6.84191
213 1 12.4037 17.6263 7.47809
214 1 11.4402 17.8026 7.24047
215 1 11.9479 18.6361 7.13621
216 1 12.7828 18.9483 6.80068
217 1 13.4327 18.5098 7.29962
218 1 13.5656 19.4108 7.8175
219 1 13.4395 19.0958 8.71407
220 1 12.52 19.1863 9.08917
221 1 24.0346 14.1815 4.85159
222 1 23.2462 13.6466 4.56353
223 1 22.3259 13.8785 4.76605
224 1 22.1253 14.5818 5.58338
225 1 21.2751 14.1628 5.52148
226 1 21.0288 14.4447 4.68361
227 1 20.8195 15.0644 5.40061
228 1 19.9992 15.1985 5.87859
229 1 20.8852 15.5389 6.3758
230 1 20.3186 16.3392 6.73249
231 1 23.1949 13.9739 5.74373
232 1 23.757 14.7013 6.10219
233 1 23.3023 14.9997 6.91017
234 1 24.067 15.3199 7.41779
235 1 24.7916 14.7587 7.79529
236 1 25.2966 14.7427 6.89468
237 1 25.8416 13.9524 7.16745
238 1 26.2636 14.3684 7.97407
239 1 26.8486 13.6036 7.74149
240 1 27.7961 13.9578 7.98623
241 1 4.68593 30.6125 4.23785
242 1 4.1093 30.5882 3.51534
243 1 3.74741 30.3582 2.62809
244 1 3.62181 29.566 3.18033
245 1 3.59544 28.8876 3.83803
246 1 2.8757 28.6087 4.48958
247 1 2.08375 28.9998 4.38237
248 1 1.223 28.6101 4.60136
249 1 0.870037 29.4277 5.14922
250 1 0.953379 30.0924 5.89358
251 1 3.45536 22.5736 3.68964
252 1 3.45039 22.2598 4.66478
253 1 4.16522 22.8204 5.12844
254 1 4.9902 22.823 5.63812
255 1 4.24079 23.4991 5.88127
256 1 4.39673 23.6288 6.7781
257 1 4.62887 22.9849 7.42779
258 1 4.66678 23.7343 8.04384
259 1 5.02697 24.4535 8.63047
260 1 4.71321 24.1682 9.43099
261 1 11.4819 26.8091 5.10334
262 1 10.7266 27.3521 4.71804
263 1 10.8967 28.0246 3.98952
264 1 10.3387 28.6112 4.59853
265 1 10.1626 27.8827 5.3607
266 1 10.4557 28.259 6.17075
267 1 11.4449 28.2596 6.09749
268 1 11.3073 29.2042 5.98035
269 1 11.4303 28.9416 5.01005
270 1 11.94 28.1953 4.65977
271 1 11.2816 27.2329 1.58624
272 1 12.0027 26.5003 1.78175
273 1 12.5144 26.4387 2.69174
274 1 12.8263 25.4498 2.70191
275 1 13.6546 25.1225 3.19441
276 1 13.3368 25.708 3.80683
277 1 12.85 25.4143 4.48872
278 1 13.5547 24.7402 4.21668
279 1 13.7959 24.088 5.07074
280 1 12.8185 24.0482 5.29579
281 1 14.5324 25.2359 4.14903
282 1 14.7549 24.7198 3.42709
283 1 14.1177 24.1924 2.93777
284 1 15.1054 23.7976 2.8564
285 1 15.7066 24.4132 3.12283
286 1 15.8125 24.5965 2.18726
287 1 15.3381 25.0116 1.39061
288 1 15.507 25.5815 2.19499
289 1 15.4087 25.8193 3.13017
290 1 15.2988 26.1092 4.09833
291 1 25.7096 26.5765 3.99058
292 1 25.6646 27.4603 4.20367
293 1 26.6152 27.3848 4.20447
294 1 26.9526 26.7626 4.87827
295 1 27.7214 27.2034 4.43299
296 1 27.8744 26.328 4.19499
297 1 28.4201 26.5027 3.375
298 1 27.5138 26.9289 3.31689
299 1 27.4334 27.8975 3.30697
300 1 28.1017 28.6133 3.75282
301 2 -2.66133 2.97581 24.6294
302 2 -3.61187 3.00249 24.9048
303 2 -3.28406 2.45589 25.6335
304 2 -2.52939 1.87386 25.9697
305 2 -2.10763 2.26358 25.1387
306 2 -1.77658 2.74256 26.0406
307 2 -1.51732 2.3844 26.8625
308 2 -2.28976 2.81606 26.9752
309 2 -2.65739 2.08278 27.4361
310 2 -3.21658 1.57984 26.9541
311 2 4.49876 2.65591 21.0392
312 2 5.46386 2.73361 20.9048
313 2 5.5299 3.64759 21.361
314 2 5.3481 4.56845 21.74
315 2 6.05031 4.61023 21.1456
316 2 5.80915 4.98471 20.2887
317 2 6.13538 4.43076 19.6265
318 2 6.91573 3.82855 19.6484
319 2 7.34029 4.72065 19.3382
320 2 7.14518 4.85598 18.3607
321 2 14.9196 6.2401 24.789
322 2 14.3639 6.26023 25.6402
323 2 14.9091 5.95404 26.3395
324 2 14.4066 5.0086 26.4192
325 2 13.449 4.74614 25.9897
326 2 13.023 4.67659 25.0693
327 2 13.381 3.79519 24.9075
328 2 13.1476 3.71136 25.9453
329 2 13.7001 3.11697 26.3935
330 2 13.9869 3.9939 26.7837
331 2 17.4687 0.957093 20.4529
332 2 16.9887 1.14738 21.2895
333 2 17.9119 1.43297 21.3769
334 2 17.4558 2.23399 21.6141
335 2 18.1199 2.8707 21.6973
336 2 18.8558 2.74816 22.263
337 2 18.5127 2.77807 23.2024
338 2 18.4539 3.7114 23.2615
339 2 19.3114 3.3827 23.6006
340 2 19.6962 2.51619 23.5412
341 2 20.0983 7.12363 22.1902
342 2 19.4977 7.04139 21.3445
343 2 20.0513 7.13638 20.6088
344 2 20.6033 6.4215 20.6652
345 2 20.9835 5.73985 20.0089
346 2 20.8239 4.78044 20.2136
347 2 20.8711 4.8619 21.2031
348 2 21.3473 5.7139 21.0674
349 2 20.6449 6.16061 21.6123
350 2 19.6914 6.08536 22.1592
351 2 27.2256 5.29818 20.994
352 2 27.6054 4.84097 21.6748
353 2 27.0521 4.12163 21.3864
354 2 27.4549 3.36386 21.7409
355 2 28.3409 2.97633 21.8037
356 2 27.927 2.25588 21.2973
357 2 28.2662 1.83826 20.41
358 2 28.8481 1.85405 19.6202
359 2 28.3356 1.28569 19.0526
360 2 28.7337 1.59165 18.1506
361 2 2.44768 10.8153 24.5906
362 2 2.2469 10.3618 23.7631
363 2 1.4874 10.2889 24.3659
364 2 2.17938 9.56907 24.3748
365 2 2.87648 9.27914 24.9882
366 2 1.94181 9.49874 25.2988
367 2 1.34279 9.10598 24.4636
368 2 0.596615 8.48578 24.6567
369 2 -0.251735 8.77218 24.1307
370 2 -0.480409 9.69992 23.7839
371 2 5.98245 11.7814 25.1056
372 2 5.08255 11.8144 25.4562
373 2 5.33087 11.9007 26.3292
374 2 5.38004 11.0901 26.8077
375 2 5.71818 11.1628 27.7682
376 2 6.49354 11.4763 27.3369
377 2 6.92966 11.9367 27.9871
378 2 7.63229 11.8395 27.3322
379 2 7.60699 12.5884 26.7933
380 2 8.53571 12.7005 26.6088
381 2 15.6058 9.64575 24.8968
382 2 14.6306 9.71188 24.7869
383 2 14.6721 9.48567 23.8637
384 2 13.989 9.0409 23.383
385 2 13.0719 9.44773 23.3518
386 2 12.0335 9.26419 23.416
387 2 12.3538 8.75956 24.1004
388 2 11.6142 9.12708 24.4469
389 2 12.3429 9.85804 24.4202
390 2 12.6638 9.956 25.38
391 2 16.7231 7.78526 22.4406
392 2 17.3837 7.52603 21.9038
393 2 18.4452 7.57922 21.9412
394 2 18.5008 8.39581 21.4778