ITEM: TIMESTEP
0
ITEM: NUMBER OF ATOMS
600
ITEM: BOX BOUNDS pp pp pp
0.0000000000000000e+00 3.2000000000000000e+01
0.0000000000000000e+00 3.2000000000000000e+01
0.0000000000000000e+00 3.2000000000000000e+01
ITEM: ATOMS id type xu yu zu
1 1 -0.372239 1.33671 -6.14177
2 1 -0.383827 2.3998 -6.23769
3 1 -1.17403 2.01892 -5.8562
4 1 -1.1088 1.09474 -5.42781
5 1 -1.48327 1.60262 -4.59972
6 1 -1.45533 1.20096 -3.71457
7 1 -1.44747 0.543445 -4.46206
8 1 -0.532032 0.89298 -4.70511
9 1 -0.0791471 1.71926 -5.07225
10 1 0.223658 1.41585 -4.22208
11 1 23.9768 -0.420567 13.4682
12 1 23.14 -0.665977 13.2108
13 1 22.5416 -0.0613726 13.6095
14 1 23.073 0.227291 14.2867
15 1 22.3084 -0.00618288 14.8256
16 1 22.2722 -0.485277 15.588
17 1 23.0985 -0.128355 15.3148
18 1 23.3121 -1.20794 15.6747
19 1 24.1263 -1.59426 15.3858
20 1 24.3934 -1.77645 14.4674
21 1 12.2979 1.15418 13.5408
22 1 11.8775 2.02159 13.604
23 1 12.8357 2.04129 13.1976
24 1 13.266 1.67302 14.0936
25 1 13.0812 2.54263 14.2708
26 1 13.5295 2.92203 13.5247
27 1 14.5254 2.80377 13.2944
28 1 15.3754 3.39905 13.2131
29 1 14.6093 4.00566 13.1619
30 1 14.6496 4.89819 13.3848
31 1 5.19501 12.9411 -2.37084
32 1 4.79662 13.0607 -3.39726
33 1 4.50912 13.7011 -2.7976
34 1 4.73367 14.193 -1.96168
35 1 4.16419 14.5813 -1.26279
36 1 4.32908 14.9186 -0.363979
37 1 4.33635 14.9005 0.626966
38 1 4.9774 14.3169 1.02984
39 1 5.17324 14.279 1.98949
40 1 5.26317 13.3375 2.00022
41 1 15.5385 18.323 -1.44334
42 1 16.0448 18.0257 -2.21659
43 1 15.8513 17.0521 -1.95671
44 1 15.5817 16.3219 -1.37498
45 1 15.514 16.4997 -0.493808
46 1 15.115 15.8617 0.0966094
47 1 14.5993 16.671 0.306312
48 1 13.7819 16.7224 0.749412
49 1 13.0921 16.4004 1.31348
50 1 12.9654 15.5563 0.797695
51 1 33.5901 -0.947698 14.4459
52 1 34.2174 -1.142 13.7865
53 1 34.6115 -0.580061 14.4356
54 1 35.4301 0.0684599 14.7051
55 1 36.0531 -0.407636 15.2655
56 1 36.8422 -0.489758 15.8083
57 1 37.5419 -0.513418 15.2392
58 1 38.2435 -0.681357 14.3949
59 1 38.671 -0.546291 13.3419
60 1 39.5874 -0.507022 13.1826
61 1 2.32959 5.80254 9.7885
62 1 3.3 5.82657 9.58725
63 1 3.48869 6.38411 8.87473
64 1 4.33823 6.19699 9.33207
65 1 4.74751 5.66322 10.0491
66 1 3.95284 6.25257 10.3672
67 1 4.77467 6.72301 10.2102
68 1 4.06815 7.28619 10.0048
69 1 3.14589 7.02008 9.84792
70 1 2.18927 7.12535 10.3312
71 1 7.91609 5.39367 6.04693
72 1 7.88684 5.54031 6.96856
73 1 8.6978 4.9138 6.96829
74 1 8.35688 4.25707 6.38724
75 1 8.79887 4.85308 5.78017
76 1 9.45264 4.50397 5.12011
77 1 8.73431 4.69816 4.35887
78 1 9.00987 3.77402 4.01336
79 1 9.41625 3.41064 3.28665
80 1 9.23129 4.35535 2.93351
81 1 16.0856 -0.396474 6.62752
82 1 15.4216 -0.100107 7.25546
83 1 14.5182 0.452601 7.27159
84 1 14.2461 -0.388019 6.83602
85 1 14.3317 -1.00245 7.50429
86 1 13.4404 -0.697437 7.59889
87 1 13.2986 -0.680662 8.54694
88 1 14.2828 -0.528482 8.67448
89 1 15.0739 -1.06199 9.11237
90 1 14.6065 -0.874433 9.865
91 1 13.8271 15.1898 -0.0518372
92 1 14.1079 15.5208 0.918225
93 1 14.5524 15.8609 1.66738
94 1 14.4146 14.9951 2.22465
95 1 14.6636 14.6482 1.41607
96 1 13.8159 14.4995 1.08068
97 1 12.8798 14.1306 1.24116
98 1 13.0352 13.4893 1.9426
99 1 12.8661 12.8324 2.63223
100 1 13.2786 13.3504 3.3626
101 1 10.6943 13.4333 13.7353
102 1 9.85302 13.167 13.1919
103 1 9.41392 14.0158 13.2844
104 1 8.47079 14.0152 13.3203
105 1 8.78079 14.7117 14.023
106 1 9.70754 14.9198 13.9029
107 1 9.98342 15.8097 14.2195
108 1 10.7168 15.1541 14.2302
109 1 11.8339 15.1486 14.2374
110 1 11.4764 15.5278 15.0679
111 1 47.1524 -5.24133 -0.471557
112 1 46.3125 -5.40809 -0.826923
113 1 46.5432 -6.33664 -0.77572
114 1 47.3362 -6.74427 -1.2115
115 1 48.089 -6.96702 -0.689654
116 1 48.7658 -6.30818 -0.851221
117 1 48.8349 -6.20039 -1.89186
118 1 49.6257 -5.79631 -1.49104
119 1 50.2787 -6.38164 -1.02994
120 1 50.2253 -6.56288 -0.042996
121 1 7.03135 13.0198 -6.84596
122 1 6.24923 13.6928 -7.09954
123 1 7.18661 14.1264 -6.97188
124 1 6.537 14.1617 -6.19482
125 1 6.10148 13.7769 -5.35367
126 1 6.71368 13.7684 -4.5595
127 1 7.18488 13.1783 -5.19415
128 1 6.4445 12.9051 -4.74636
129 1 7.1691 12.6933 -4.06492
130 1 7.35735 11.7481 -4.10791
131 1 25.4457 21.3435 10.9523
132 1 25.9927 22.0486 11.2025
133 1 26.5232 22.1724 10.3837
134 1 25.8837 22.8876 10.345
135 1 24.9315 23.1549 10.7058
136 1 25.0426 22.5416 9.96129
137 1 24.4879 22.6926 9.17786
138 1 23.8663 22.114 9.7475
139 1 23.6312 22.6209 10.5322
140 1 23.4816 21.6178 10.7386
141 1 14.5546 28.4199 0.620252
142 1 13.8993 27.7376 0.605248
143 1 13.3796 28.405 0.0193145
144 1 13.1025 27.9449 -0.84986
145 1 12.3632 27.3398 -0.544405
146 1 11.779 27.6354 0.182385
147 1 11.4896 27.9882 -0.69888
148 1 11.4482 28.5154 -1.47875
149 1 10.5426 28.3353 -1.27185
150 1 10.2004 28.115 -2.15624
151 1 17.9283 13.2935 1.39641
152 1 17.3042 13.6585 0.775144
153 1 17.0419 14.0649 1.54907
154 1 16.4 14.841 1.97945
155 1 15.87 15.7318 2.19431
156 1 16.3552 16.6368 2.3155
157 1 15.4382 16.6534 1.84581
158 1 15.5467 17.5897 2.20573
159 1 14.6745 17.3107 2.49525
160 1 14.4031 16.3614 2.92887
161 1 9.87886 16.1914 10.8476
162 1 9.74369 15.5085 10.1869
163 1 10.6656 15.5279 10.5543
164 1 11.2607 16.1471 10.06
165 1 11.5592 16.0431 11.0747
166 1 10.7758 16.3513 11.8036
167 1 11.4011 15.7332 12.1572
168 1 12.3039 15.4571 12.5475
169 1 12.5719 14.5871 12.1602
170 1 11.6608 14.3793 12.5257
171 1 31.1725 22.8269 4.97233
172 1 31.1003 22.2329 4.25515
173 1 31.7622 21.6564 4.59596
174 1 31.7072 20.9168 5.12994
175 1 32.1004 20.4517 4.33394
176 1 31.3166 19.8992 4.7865
177 1 30.6738 20.5818 5.37363
178 1 30.8636 20.1136 6.18411
179 1 30.5744 19.2087 5.97716
180 1 30.1118 18.9932 6.82238
181 1 -10.7445 25.6969 3.06692
182 1 -10.6184 25.3006 2.1259
183 1 -9.72164 25.191 1.96294
184 1 -9.35437 24.3189 1.90897
185 1 -8.69478 24.1935 2.565
186 1 -8.89582 25.0227 3.10576
187 1 -8.36296 24.4893 3.60713
188 1 -7.54651 24.0894 3.57669
189 1 -6.82699 24.6817 3.47168
190 1 -5.85086 24.7369 3.71421
191 1 -0.904237 6.41491 -3.57536
192 1 -1.24477 5.39402 -3.89382
193 1 -1.273 4.4705 -4.24076
194 1 -0.746646 4.63334 -4.93936
195 1 0.214235 4.63494 -4.66221
196 1 0.553641 3.75626 -4.84466
197 1 -0.098197 3.89478 -5.45199
198 1 -0.258936 4.74708 -5.77063
199 1 -0.894285 4.21232 -6.0366
200 1 -1.51094 4.03086 -6.73145
201 1 10.7304 20.0165 3.71683
202 1 10.5578 19.1523 4.02774
203 1 10.4105 18.6628 3.13108
204 1 9.98775 18.1561 3.86418
205 1 9.51237 18.9397 4.05677
206 1 9.43192 19.8375 3.78209
207 1 9.57388 20.1447 2.77462
208 1 9.4618 19.1372 2.8664
209 1 8.67252 19.1645 2.37766
210 1 8.80105 18.3285 2.77483
211 1 27.8502 18.7152 2.34976
212 1 27.1559 19.4642 2.00292
213 1 27.6355 20.3354 2.00442
214 1 27.8594 21.0128 2.68389
215 1 27.9518 20.3284 3.31507
216 1 27.5941 19.5309 2.89499
217 1 27.4465 18.6868 3.46933
218 1 26.4285 18.969 3.57317
219 1 25.864 19.4182 3.01294
220 1 26.3238 20.1232 2.59405
221 1 14.8649 -2.50917 8.71911
222 1 14.5374 -2.06929 9.46216
223 1 13.7834 -1.96392 8.81789
224 1 13.2677 -2.49796 8.30255
225 1 13.4387 -3.39823 7.83674
226 1 14.2755 -3.88602 7.75405
227 1 14.2899 -4.101 6.77448
228 1 14.635 -3.15798 6.70881
229 1 14.2169 -2.84583 7.49272
230 1 14.0242 -2.04594 6.94151
231 1 19.7761 10.4857 23.0069
232 1 18.99 11.0562 22.7957
233 1 19.5624 11.7312 22.4094
234 1 19.0902 12.4835 21.9689
235 1 19.4936 11.8192 21.4283
236 1 18.5533 11.6179 21.536
237 1 17.7411 11.1658 21.9404
238 1 17.0061 11.8861 22.021
239 1 16.9504 11.3116 22.7779
240 1 17.2064 10.3457 23.0987
241 1 -9.28528 21.4913 13.1367
242 1 -9.50646 20.5742 12.6422
243 1 -8.91859 20.9654 11.8995
244 1 -8.01988 21.3436 12.0045
245 1 -8.01526 22.0884 11.4939
246 1 -7.24753 22.5012 12.0847
247 1 -7.03563 22.3679 12.9713
248 1 -7.02369 21.7314 13.649
249 1 -6.27643 22.2364 13.7317
250 1 -5.34585 22.1354 14.1629
251 1 -5.21235 19.585 5.849
252 1 -5.54366 20.4484 6.31309
253 1 -5.45339 20.1003 7.24547
254 1 -4.50497 19.8645 7.2267
255 1 -3.87915 19.9035 7.97237
256 1 -4.40962 19.0663 8.01813
257 1 -3.50611 18.8608 7.78791
258 1 -3.5533 18.9242 8.78713
259 1 -2.52515 19.0913 8.64583
260 1 -1.66139 19.4726 8.53307
261 1 16.1519 8.91137 2.43826
262 1 15.3578 9.39432 2.46987
263 1 15.7564 9.05328 3.31037
264 1 16.5909 8.96627 3.64982
265 1 16.55 9.8749 4.05525
266 1 16.8881 9.91955 4.9095
267 1 17.4249 9.22058 4.62325
268 1 17.8234 9.23056 3.68787
269 1 18.7339 9.24363 4.05526
270 1 18.9828 9.36608 3.07877
271 1 0.558905 17.9862 3.09378
272 1 1.08621 17.5574 3.72159
273 1 1.53808 17.4726 4.52071
274 1 2.14393 17.6877 5.32508
275 1 1.89174 16.6718 5.33667
276 1 2.22392 16.4853 6.21213
277 1 1.29019 16.7623 6.4772
278 1 1.47662 17.648 6.91131
279 1 1.19264 17.7062 6.09881
280 1 0.422323 17.1504 6.09267
281 1 0.292527 7.16544 14.0981
282 1 1.03025 6.86418 13.4038
283 1 0.305947 6.2196 13.2811
284 1 -0.673243 6.41251 13.1151
285 1 -0.340215 5.88748 12.3916
286 1 -0.386321 6.48947 11.6247
287 1 -0.671635 7.3933 11.1758
288 1 -0.653759 7.25353 10.1554
289 1 -0.79964 8.11129 9.85358
290 1 -0.853016 7.79795 8.93327
291 1 18.6549 37.8916 3.18182
292 1 18.1701 38.1896 3.9136
293 1 18.5274 39.0182 3.84612
294 1 18.7204 39.902 3.48306
295 1 18.5392 40.1524 2.60558
296 1 17.7422 40.3469 3.2023
297 1 17.5714 39.2954 2.85419
298 1 18.1494 38.8509 2.32794
299 1 17.6896 39.4924 1.76413
300 1 18.5164 39.5608 1.32298
301 2 8.70973 1.02782 30.0108
302 2 9.61452 0.83643 29.6181
303 2 8.91272 0.740558 28.8839
304 2 8.60516 1.33428 28.2194
305 2 9.05307 1.76564 29.1143
306 2 9.89125 1.84781 29.7145
307 2 10.6927 1.33753 29.6661
308 2 11.0376 1.18805 30.6368
309 2 11.0957 0.276487 30.2886
310 2 11.5529 -0.0656808 29.5308
311 2 9.2996 3.65732 38.9945
312 2 9.24214 3.85368 38.0411
313 2 10.0082 4.52947 37.9678
314 2 10.4663 4.2486 37.2517
315 2 10.7797 4.21757 36.3429
316 2 11.1138 3.40438 35.8805
317 2 11.7245 3.78934 36.5088
318 2 11.5093 2.89208 36.7563
319 2 11.5863 2.54894 35.9197
320 2 12.4506 2.18718 35.7276
321 2 9.09752 3.39796 33.9989
322 2 9.67962 3.21278 33.1359
323 2 9.85906 3.97166 32.6951
324 2 10.0827 4.15367 31.8845
325 2 10.8276 3.47125 32.167
326 2 10.7681 3.17307 31.2826
327 2 11.3367 3.9822 31.2679
328 2 12.0255 3.2432 31.3165
329 2 11.8918 3.38122 30.3945
330 2 11.25 2.63886 30.5401
331 2 4.10516 0.273444 22.3912
332 2 4.12101 1.15384 22.6333
333 2 4.70678 0.5653 23.2215
334 2 4.35124 -0.0253954 23.8116
335 2 3.69044 0.468317 23.3413
336 2 2.81989 -0.103668 23.4262
337 2 3.26748 -0.258603 22.5252
338 2 3.53576 -1.12004 22.3648
339 2 3.89893 -0.568916 21.6868
340 2 3.92895 0.278361 21.1941
341 2 18.13 7.12893 9.03162
342 2 19.0277 7.29611 9.09385
343 2 19.0973 6.39709 8.6141
344 2 20.0006 6.46584 9.0084
345 2 20.5192 6.21792 9.76605
346 2 19.67 5.74357 9.82407
347 2 19.2665 5.34713 8.90427
348 2 19.6568 5.20822 8.0354
349 2 20.1248 6.05643 7.62801
350 2 20.5531 5.35976 7.26689
351 2 41.4728 -13.2838 8.15382
352 2 41.1202 -12.8974 7.40012
353 2 41.7048 -13.5603 7.07334
354 2 41.4298 -14.2091 6.37639
355 2 40.5056 -14.2144 6.46497
356 2 40.5848 -13.2283 6.54076
357 2 39.7185 -12.8154 6.48102
358 2 39.0116 -12.9267 7.21568
359 2 39.2565 -13.6628 7.75766
360 2 40.1278 -13.5675 7.56848
361 2 7.55133 -1.12556 28.0264
362 2 8.239 -1.48215 28.6954
363 2 8.38735 -1.99865 29.5859
364 2 8.50469 -1.86736 30.5205
365 2 9.40532 -2.05313 30.6545
366 2 9.66214 -1.21997 30.2851
367 2 10.0966 -1.14652 29.4107
368 2 10.5484 -2.08551 29.314
369 2 9.97942 -2.66536 28.7882
370 2 9.40586 -1.95783 28.7903
371 2 10.8913 32.5167 27.7162
372 2 11.2367 31.6374 27.5187
373 2 10.3654 31.5922 27.9503
374 2 9.50825 31.526 27.4345
375 2 9.86331 32.3681 27.8841
376 2 10.1738 32.2813 26.9853
377 2 10.4399 31.3269 26.6261
378 2 10.6316 31.4982 25.7225
379 2 10.8589 32.4054 25.9626
380 2 10.421 32.8796 25.1089
381 2 10.017 6.25844 36.0166
382 2 10.7861 6.65264 36.49
383 2 11.4698 6.72474 35.7618
384 2 11.9786 7.30167 35.1279
385 2 11.9815 7.73486 34.0967
386 2 11.3219 7.96111 33.3617
387 2 11.1415 8.89096 33.6333
388 2 10.2848 8.71947 33.9202
389 2 10.6251 9.30952 34.7151
390 2 10.0483 9.99356 35.1538
391 2 16.413 6.79756 16.2815
392 2 16.0827 7.48938 16.7777
393 2 15.558 8.34518 16.6012
394 2 15.8032 7.97202 15.7303
395 2 16.0138 7.11912 15.3709
396 2 15.9907 7.63145 14.5622
397 2 15.4173 7.02225 14.0574
398 2 14.8417 7.23865 14.739
399 2 13.8333 7.35192 14.7402
400 2 13.9725 7.29915 13.6779
401 2 10.3528 8.77064 32.6858
402 2 10.4766 7.96129 32.151
403 2 10.0418 7.23987 32.6685
404 2 9.10524 7.55686 32.4446
405 2 9.01723 7.55527 33.3728
406 2 9.42552 6.74149 33.6539
407 2 9.78381 6.22285 32.8297
408 2 9.16543 5.54697 33.136
409 2 8.98886 5.29592 34.0501
410 2 8.10405 5.69373 33.822
411 2 14.8893 21.7521 14.9783
412 2 14.6352 20.7951 14.6794
413 2 14.7052 21.2637 13.7193
414 2 15.358 20.5377 13.6141
415 2 14.734 20.5816 12.8667
416 2 14.885 21.0247 11.9822
417 2 14.2042 20.8099 11.4002
418 2 14.0449 19.8312 11.7818
419 2 13.3895 19.507 12.51
420 2 13.4126 20.4945 12.6958
421 2 10.4555 30.4208 25.2947
422 2 11.0231 30.3271 26.0369
423 2 11.3525 30.5527 26.8441
424 2 10.5242 30.6474 27.5497
425 2 10.6743 29.7303 27.5434
426 2 10.9787 29.2273 28.2417
427 2 11.8553 29.142 28.0925
428 2 11.9512 30.1367 27.9715
429 2 12.6035 30.311 28.649
430 2 13.4789 30.397 29.1483
431 2 14.6694 6.03303 14.0546
432 2 13.9966 5.35387 14.1455
433 2 14.1456 4.47881 14.5346
434 2 13.7223 4.47634 15.3693
435 2 13.1277 4.09772 14.7268
436 2 12.2737 3.75264 14.9956
437 2 12.1265 4.24698 15.8339
438 2 13.0525 4.04456 15.9166
439 2 13.4195 3.84798 16.7384
440 2 14.0731 4.40798 16.3984
441 2 7.71473 18.2247 34.4309
442 2 8.1095 17.4761 34.9599
443 2 8.72012 16.9602 34.3542
444 2 9.30361 17.6634 33.8952
445 2 9.68836 17.2169 34.7171
446 2 9.46997 17.1864 35.5802
447 2 8.9449 16.5478 36.085
448 2 8.74921 15.8135 35.4994
449 2 8.16522 15.9903 36.2971
450 2 7.72907 16.5706 35.6149
451 2 1.58607 22.6534 44.0125
452 2 2.22547 23.1645 43.6163
453 2 1.5734 23.6535 43.0837
454 2 2.33891 23.3794 42.5435
455 2 3.21596 23.1049 42.8601
456 2 2.49535 22.3609 43.0156
457 2 1.6045 21.9368 42.8959
458 2 1.5214 21.6181 43.7837
459 2 2.40499 21.8862 44.0047
460 2 3.1021 21.2014 44.1406
461 2 20.8711 0.151096 4.67298
462 2 21.1575 0.650375 5.50972
463 2 21.7995 0.66581 6.34086
464 2 22.3903 -0.0572111 6.34777
465 2 22.6543 -0.598106 5.56001
466 2 22.3962 -1.02616 4.81111
467 2 23.3136 -1.40093 4.70241
468 2 24.2839 -1.73522 5.09979
469 2 24.8089 -2.49143 5.04215
470 2 23.9004 -2.78604 5.27451
471 2 19.2889 5.72004 36.1463
472 2 18.7095 5.95978 36.943
473 2 17.8413 5.57492 37.2852
474 2 18.3768 5.04935 36.5567
475 2 17.535 4.52102 36.5713
476 2 17.096 4.5212 35.7435
477 2 17.9824 4.28352 35.461
478 2 18.2139 3.44958 34.9505
479 2 17.9346 2.51045 35.3409
480 2 17.5777 3.22035 35.772
481 2 2.26641 18.9867 10.6315
482 2 1.74537 18.5363 11.3172
483 2 1.27479 18.1453 11.9841
484 2 1.53979 18.8683 12.6489
485 2 1.59038 19.4275 11.8504
486 2 2.56155 19.1969 11.7023
487 2 3.5374 18.9782 11.4844
488 2 3.57796 19.8959 11.4584
489 2 4.204 19.5722 10.8853
490 2 3.93096 19.165 10.0663
491 2 17.8906 23.137 12.6314
492 2 18.7773 23.2975 12.1985
493 2 19.2029 22.9283 11.4034
494 2 18.3113 22.6547 11.474
495 2 17.4014 22.275 11.5272
496 2 17.7845 21.5897 11.0297
497 2 18.4746 21.2353 11.609
498 2 19.1574 21.5923 12.3362
499 2 19.4723 20.6674 12.5582
500 2 18.9488 20.1193 11.8627
501 2 7.05917 12.1083 31.8692
502 2 6.2687 11.6916 32.1821
503 2 6.11422 11.9552 31.2751
504 2 6.4695 12.8421 31.2128
505 2 7.43851 13.0739 31.1805
506 2 8.36353 12.7434 31.0869
507 2 8.3283 11.7752 31.3071
508 2 8.05004 11.1966 30.6086
509 2 7.84085 10.5185 29.8019
510 2 7.36258 11.2135 29.4801
511 2 35.0888 21.4851 33.7239
512 2 35.5953 20.8564 34.253
513 2 35.1823 20.5388 35.0921
514 2 35.1731 20.8135 36.1447
515 2 34.3633 21.2242 35.8844
516 2 33.5095 21.6266 36.0836
517 2 33.5487 20.7676 36.4388
518 2 33.8375 20.2649 37.1391
519 2 33.7602 21.2519 37.4084
520 2 32.8231 21.1116 37.4337
521 2 25.3172 20.158 7.33105
522 2 25.6795 19.4333 6.68167
523 2 24.7495 19.3532 6.83643
524 2 24.2952 20.1938 6.52508
525 2 24.259 20.0601 7.51612
526 2 23.7641 20.8258 7.7441
527 2 23.5607 21.0284 6.85261
528 2 22.574 20.7442 7.07889
529 2 22.5845 20.1959 7.89851
530 2 23.062 19.6997 8.53182
531 2 32.9892 30.921 12.6832
532 2 33.0451 30.1068 13.1921
533 2 32.7177 30.0245 12.2515
534 2 32.6606 30.122 11.3391
535 2 31.7493 29.6646 11.0865
536 2 32.0891 28.8013 10.8143
537 2 31.6178 28.8784 9.98907
538 2 31.8432 28.4298 9.22249
539 2 31.7219 28.9015 8.21769
540 2 30.9278 28.8446 8.87791
541 2 1.79311 36.4806 35.588
542 2 1.03394 36.4515 35.0242
543 2 0.508144 37.1912 35.2528
544 2 -0.0586067 36.4809 34.8348
545 2 -0.82233 35.9286 34.7899
546 2 -0.982865 36.4291 33.9104
547 2 -1.65841 37.0847 34.2025
548 2 -2.61964 37.2469 34.0049
549 2 -2.69272 38.2109 33.9799
550 2 -3.59688 38.1537 33.557
551 2 0.459533 25.2634 20.3886
552 2 0.655408 24.4494 19.9775
553 2 1.4348 24.561 19.3928
554 2 1.73141 24.1584 18.6355
555 2 2.55728 24.7108 18.7713
556 2 2.75455 24.4268 19.768
557 2 2.08566 23.9079 20.1417
558 2 2.26947 23.3059 19.374
559 2 3.05335 23.0676 19.0184
560 2 3.58888 23.8111 19.0241
561 2 3.42927 17.1859 34.174
562 2 2.82457 17.485 34.7946
563 2 3.19019 17.6582 35.7549
564 2 2.55456 16.8553 35.8256
565 2 2.90838 15.9173 35.7256
566 2 2.52355 15.6112 34.8788
567 2 2.92367 16.5379 34.9187
568 2 2.0902 16.4948 34.2811
569 2 1.29874 16.4476 34.8811
570 2 1.80758 16.214 35.6349
571 2 13.0644 28.6103 32.9893
572 2 12.92 29.5202 32.4312
573 2 13.5791 29.7513 31.7286
574 2 13.7649 30.6561 31.9503
575 2 13.2761 31.2059 32.6109
576 2 12.7172 30.8733 33.3659
577 2 12.0086 30.448 33.7767
578 2 11.5055 31.2491 33.999
579 2 10.913 30.9265 33.3446
580 2 9.93539 30.8245 33.044
581 2 29.2155 56.1241 28.5689
582 2 29.2094 55.1245 28.3082
583 2 28.4137 54.9679 28.9508
584 2 28.2483 54.4189 29.7612
585 2 29.1703 54.3784 29.4174
586 2 29.7483 54.6664 30.1423
587 2 29.5996 53.767 30.1579
588 2 29.4654 53.9711 31.0383
589 2 29.9833 53.0775 30.8416
590 2 29.6118 52.5018 31.6763
591 2 11.9844 30.08 20.909
592 2 11.8607 29.1137 21.1547
593 2 11.3517 28.4086 20.8695
594 2 10.9996 27.6896 21.5366
595 2 11.539 27.7698 22.3654
596 2 11.662 28.2088 23.1969
597 2 10.7032 28.3367 23.4257
598 2 11.4378 28.2942 24.1853
599 2 10.7572 28.8738 24.4307
600 2 9.85338 28.4625 24.366
ITEM: TIMESTEP
1000
ITEM: NUMBER OF ATOMS
600
ITEM: BOX BOUNDS pp pp pp
0.0000000000000000e+00 3.2000000000000000e+01
0.0000000000000000e+00 3.2000000000000000e+01
0.0000000000000000e+00 3.2000000000000000e+01
ITEM: ATOMS id type xu yu zu
1 1 -1.06778 0.174444 -6.34336
2 1 -0.921099 0.731226 -5.59816
3 1 -1.55294 1.22285 -6.1002
4 1 -2.40647 1.13083 -5.57592
5 1 -2.87481 1.29243 -6.49472
6 1 -2.88613 0.749775 -7.27624
7 1 -1.91128 0.841835 -7.06745
8 1 -2.38313 0.317534 -6.43327
9 1 -2.93 -0.176731 -5.78242
10 1 -3.18792 -0.987053 -6.23853
11 1 19.4317 1.70428 14.5761
12 1 20.0066 1.81936 15.343
13 1 20.126 2.78997 15.158
14 1 20.9195 2.28281 14.9701
15 1 21.5262 2.47837 15.7783
16 1 22.5278 2.43036 15.8336
17 1 22.4767 1.42005 15.8659
18 1 22.5267 1.05605 14.9764
19 1 22.985 0.464043 15.5407
20 1 22.1244 0.258869 16.0229
21 1 10.3507 5.51863 12.1871
22 1 11.016 4.85529 12.125
23 1 11.9253 5.22291 12.116
24 1 11.7938 4.21123 12.213
25 1 12.3345 4.40772 13.0534
26 1 12.8158 5.22665 13.411
27 1 12.0837 5.78474 13.1994
28 1 11.6667 6.16779 12.4128
29 1 12.5652 6.19342 12.3574
30 1 12.2984 6.89438 12.9593
31 1 5.1281 12.2179 -1.99399
32 1 6.16079 12.4421 -1.59207
33 1 6.36254 12.6647 -0.66361
34 1 7.31266 12.6527 -0.251103
35 1 7.45191 12.52 0.634409
36 1 7.14344 13.3937 0.904839
37 1 6.2645 12.9019 1.20972
38 1 5.89114 12.5068 0.468107
39 1 5.24758 12.2659 -0.140866
40 1 5.39079 11.4294 0.191615
41 1 16.5872 14.6067 -0.499036
42 1 15.6186 14.6384 -0.706508
43 1 15.0052 15.1808 -0.0463386
44 1 14.3601 15.5594 0.495943
45 1 13.9106 16.0776 -0.13011
46 1 13.5919 16.8401 0.268763
47 1 13.5076 16.529 1.22163
48 1 14.1057 16.495 1.96259
49 1 15.0194 16.1607 2.05512
50 1 15.7066 16.8808 1.7738
51 1 34.2453 -2.58489 16.3209
52 1 34.4339 -1.95612 17.0551
53 1 34.1986 -1.15115 16.5577
54 1 35.105 -1.43168 16.3166
55 1 35.2941 -0.526759 16.0124
56 1 35.8331 0.083475 16.4393
57 1 36.8643 -0.0692551 16.5345
58 1 36.5112 0.247384 15.7429
59 1 36.443 -0.70686 15.7414
60 1 35.9693 -1.54197 15.4182
61 1 4.62196 8.74311 9.82423
62 1 5.16123 8.08799 10.1195
63 1 4.81485 7.80673 10.9767
64 1 4.90176 6.74712 10.7148
65 1 4.15075 6.32212 10.2731
66 1 3.70967 5.53851 9.8101
67 1 3.43112 6.41038 9.57352
68 1 3.60636 6.43628 8.66841
69 1 3.90503 5.55561 8.56144
70 1 3.13808 5.0716 8.13158
71 1 6.13946 2.60207 5.99038
72 1 6.63217 2.91719 5.24401
73 1 6.99808 2.11305 4.71873
74 1 7.61674 2.52004 5.25213
75 1 8.49741 2.76659 5.49606
76 1 8.83788 2.27179 4.74741
77 1 9.72608 1.87081 4.44769
78 1 9.95261 2.90793 4.58953
79 1 9.73038 3.22238 3.71778
80 1 10.3604 3.96154 3.39389
81 1 14.383 -3.2884 6.3936
82 1 15.0832 -2.67701 6.13621
83 1 14.4149 -2.1208 6.52185
84 1 14.8452 -1.24075 6.76505
85 1 14.8046 -0.345367 7.09902
86 1 13.9537 -0.370308 6.72755
87 1 12.9648 -0.228448 6.80086
88 1 13.1436 0.525594 7.33134
89 1 12.8432 1.43659 7.17658
90 1 12.0775 0.879688 6.86074
91 1 13.6075 13.4916 4.28069
92 1 13.9493 13.7252 3.4244
93 1 14.3362 12.9088 3.89975
94 1 15.0861 13.1123 4.49384
95 1 15.2854 12.1996 4.57231
96 1 15.1579 11.6274 5.43443
97 1 14.3856 11.3375 4.87814
98 1 14.1856 11.9527 5.64133
99 1 13.6984 12.4463 4.91589
100 1 13.4179 13.29 5.37122
101 1 10.6991 15.2371 13.0915
102 1 11.6231 15.4604 13.3856
103 1 11.6247 14.8041 12.6849
104 1 11.2949 14.7021 11.559
105 1 10.5156 14.6775 11.0388
106 1 10.6498 15.556 11.4194
107 1 10.1441 15.6727 12.3507
108 1 10.307 16.5432 12.8957
109 1 9.5998 16.5719 13.62
110 1 9.99675 17.474 13.9548
111 1 49.4216 -4.95671 -1.29845
112 1 48.9762 -4.90166 -2.15184
113 1 48.272 -4.43017 -1.72592
114 1 48.4787 -4.07364 -0.728218
115 1 47.7541 -3.53805 -1.13566
116 1 47.4387 -4.15168 -0.422746
117 1 48.1484 -4.98386 -0.70142
118 1 47.4962 -5.60456 -0.703137
119 1 47.0924 -6.36003 -1.00832
120 1 47.2074 -5.77688 -1.78001
121 1 8.3207 16.3261 -8.32413
122 1 8.5558 16.9539 -7.69659
123 1 7.55502 17.1026 -7.72176
124 1 7.17625 16.5402 -7.05047
125 1 7.01333 15.7074 -6.56688
126 1 6.07781 15.8515 -6.24301
127 1 5.36115 16.2206 -5.62038
128 1 5.80306 16.9768 -6.01028
129 1 6.28765 16.7283 -5.202
130 1 5.89237 17.6104 -5.12146
131 1 22.847 22.2633 8.73827
132 1 22.2029 22.5472 8.15316
133 1 21.8052 23.2146 8.59642
134 1 21.5217 23.3505 9.48866
135 1 22.2833 22.7958 9.51699
136 1 22.8647 23.179 10.3607
137 1 22.7007 22.7962 11.2635
138 1 22.1856 23.623 11.2443
139 1 21.3564 24.0561 11.2129
140 1 20.544 23.5214 10.8442
141 1 14.3553 27.05 1.87417
142 1 13.8921 27.0184 1.00705
143 1 13.1086 26.5908 1.03066
144 1 12.2776 26.6129 0.541425
145 1 12.8002 25.8122 0.243553
146 1 13.4465 25.484 1.10686
147 1 12.6292 25.5012 1.61753
148 1 11.9274 25.5403 0.98339
149 1 11.1755 25.8532 0.634612
150 1 10.342 25.9952 0.0894093
151 1 18.367 15.0261 3.18726
152 1 17.7712 15.6268 2.84335
153 1 17.0413 14.9861 2.55363
154 1 16.7603 15.7701 2.99175
155 1 15.9616 16.5399 3.18501
156 1 15.8623 17.1366 3.98306
157 1 15.7504 16.6149 4.83878
158 1 16.5056 16.6948 5.35078
159 1 17.0272 17.5353 5.24652
160 1 17.4473 18.0627 4.54283
161 1 11.0537 16.4313 10.7244
162 1 10.6114 16.1563 9.86891
163 1 10.7881 15.2181 9.9753
164 1 11.2517 14.3735 10.3386
165 1 11.0047 13.5012 9.95804
166 1 10.2647 14.1092 10.246
167 1 9.99624 13.6238 11.0397
168 1 10.3136 13.7783 11.9664
169 1 10.2375 14.1302 12.8221
170 1 10.5828 14.4172 13.6849
171 1 31.4574 23.4474 8.76298
172 1 31.3876 24.1707 8.17286
173 1 31.102 23.3878 7.68638
174 1 30.9698 22.4654 7.57361
175 1 31.1735 21.5711 7.7829
176 1 30.7045 20.7898 7.55566
177 1 29.8531 20.5334 7.80141
178 1 29.4796 21.1915 6.94951
179 1 28.7765 20.5932 6.7652
180 1 29.5863 20.0871 6.65399
181 1 -10.6616 24.2617 1.77433
182 1 -9.72759 24.029 1.88983
183 1 -9.00842 24.1141 1.15119
184 1 -8.83896 23.1392 1.09961
185 1 -9.00057 22.5061 1.77301
186 1 -8.12567 22.3529 1.42685
187 1 -7.35359 22.9128 1.51048
188 1 -7.78315 23.5964 0.850367
189 1 -7.93101 23.4516 -0.0773078
190 1 -8.77883 23.8476 0.0614459
191 1 3.15025 3.88872 -4.20327
192 1 2.44784 4.40814 -3.5449
193 1 1.56339 4.19859 -3.73787
194 1 0.935357 4.18777 -4.46007
195 1 0.193752 3.76299 -5.03826
196 1 -0.00626445 3.56034 -5.91492
197 1 -0.821457 3.2118 -5.59336
198 1 -1.61193 3.32129 -6.13497
199 1 -2.17915 2.82761 -5.57721
200 1 -2.28358 2.24921 -6.24901
201 1 8.31772 19.3036 3.1311
202 1 8.50318 19.8045 4.10733
203 1 9.20598 19.365 4.54862
204 1 8.57869 18.5988 4.79837
205 1 9.38941 18.1079 4.94046
206 1 9.15862 18.1467 4.02158
207 1 9.86471 17.4666 3.97384
208 1 10.0924 16.8696 4.65651
209 1 10.5913 17.5382 5.33018
210 1 11.2824 18.0642 4.89776
211 1 26.5808 18.7761 2.90977
212 1 27.45 18.7316 2.64876
213 1 27.8335 19.3328 1.99411
214 1 26.9123 19.5769 2.05307
215 1 26.5179 19.582 1.15096
216 1 26.2473 20.5247 1.52193
217 1 26.2736 21.2128 2.1035
218 1 25.3849 20.9792 1.60967
219 1 24.8149 21.7742 1.49311
220 1 24.1563 21.5024 2.3342
221 1 14.3859 -2.77107 7.33312
222 1 14.4211 -2.06778 7.94629
223 1 15.3788 -1.98514 7.74908
224 1 15.8471 -2.85036 8.30601
225 1 14.8622 -3.16741 8.13585
226 1 14.1435 -3.78075 7.81129
227 1 15.0337 -4.15717 7.41163
228 1 14.6138 -4.52359 6.69312
229 1 14.1173 -4.77864 7.44995
230 1 14.1637 -5.51641 6.81717
231 1 17.6973 13.7443 22.764
232 1 17.2488 13.0288 23.2127
233 1 17.1029 12.3715 23.9171
234 1 17.4964 11.8367 23.2934
235 1 16.5888 12.0637 23.0701
236 1 16.6554 12.7502 22.3897
237 1 17.6018 12.6482 22.3888
238 1 17.3214 11.7509 22.2517
239 1 18.174 12.0518 21.8626
240 1 18.7509 12.7184 21.3729
241 1 -8.964 20.3372 10.6378
242 1 -8.60533 19.468 10.5624
243 1 -7.80618 19.6246 10.056
244 1 -7.18848 20.4242 9.93518
245 1 -7.29769 21.2943 10.4303
246 1 -7.41571 22.1148 10.8863
247 1 -7.13574 21.6521 11.7227
248 1 -6.51392 21.1467 12.3552
249 1 -7.01887 20.9533 13.2073
250 1 -6.19748 20.3757 13.2094
251 1 -4.79973 21.3333 6.92361
252 1 -4.77994 22.1832 7.32197
253 1 -4.72927 22.0038 8.25759
254 1 -4.7876 21.6349 9.23372
255 1 -3.94641 21.6361 9.7674
256 1 -3.41704 21.2016 10.664
257 1 -2.99361 20.4945 11.2047
258 1 -3.46804 19.9005 10.7422
259 1 -3.79278 19.2552 9.98179
260 1 -3.3711 19.2887 9.10487
261 1 16.213 9.00712 3.4664
262 1 16.7364 9.9415 3.62105
263 1 16.9609 9.64458 2.74174
264 1 17.7578 9.61831 3.26796
265 1 17.5995 10.0058 4.11153
266 1 17.3677 9.04635 4.17028
267 1 16.8091 9.08167 4.9201
268 1 16.2451 8.83688 5.69941
269 1 16.329 8.09217 5.13279
270 1 16.7024 7.85926 4.31624
271 1 -0.271965 16.8773 5.51598
272 1 -0.293627 17.6625 4.88396
273 1 0.473099 17.3492 4.431
274 1 0.807376 16.4603 4.33042
275 1 0.960632 16.4998 5.25724
276 1 1.34792 16.6418 6.11798
277 1 1.44904 15.6998 6.34007
278 1 0.467886 16.0369 6.10959
279 1 -0.422386 16.1545 6.4231
280 1 -0.667003 17.0563 6.44545
281 1 -1.72715 7.44018 12.9436
282 1 -1.38045 7.45479 13.8413
283 1 -1.01184 6.69929 13.4094
284 1 -1.49803 6.41201 12.6659
285 1 -2.46592 6.17734 12.2217
286 1 -2.74587 7.03607 11.7764
287 1 -2.8093 7.87417 11.4008
288 1 -2.46256 8.31148 12.2109
289 1 -1.6444 8.05322 11.6895
290 1 -1.73531 7.40212 10.9774
291 1 17.4943 39.5381 1.25203
292 1 16.888 38.7699 1.08301
293 1 17.8744 38.6697 0.591829
294 1 18.4758 38.0427 0.993038
295 1 18.6253 36.9847 0.842375
296 1 17.9388 37.421 0.413588
297 1 17.3222 37.1808 1.10773
298 1 17.6504 37.4215 1.94909
299 1 17.5367 36.6894 2.39167
300 1 16.568 36.5693 2.12641
301 2 8.59793 1.44331 31.277
302 2 8.87637 0.920149 30.4929
303 2 9.78162 1.08947 30.1916
304 2 9.73402 2.13865 30.167
305 2 9.55111 2.20045 31.0194
306 2 10.4946 2.12568 30.7973
307 2 10.6031 1.06708 30.7686
308 2 9.82574 0.951854 31.3756
309 2 10.4571 0.499493 31.7644
310 2 9.70743 -0.187167 31.8052
311 2 13.0994 3.34708 36.4266
312 2 12.5033 2.88366 35.7747
313 2 11.7544 3.35004 36.012
314 2 10.9288 3.36899 36.6193
315 2 11.1183 3.11051 37.513
316 2 12.0294 2.70718 37.2172
317 2 12.4037 1.91586 37.482
318 2 13.4169 1.75331 37.4855
319 2 13.9385 1.65921 38.2932
320 2 14.0067 2.43863 38.8504
321 2 11.135 5.49512 32.0107
322 2 10.5512 5.01666 31.452
323 2 9.62449 5.07074 31.1043
324 2 9.86359 4.199 31.5032
325 2 10.3965 3.84515 32.3577
326 2 10.333 2.88846 32.1601
327 2 9.59061 2.31871 32.3107
328 2 10.0833 1.47975 32.4235
329 2 10.9754 1.55013 32.0498
330 2 11.5723 1.51788 31.3181
331 2 2.67854 -0.83496 22.1019
332 2 3.45124 -0.302182 22.0909
333 2 4.35398 -0.0856562 22.4239
334 2 4.22011 -0.973051 21.9346
335 2 4.43376 -0.795656 21.0338
336 2 3.64116 -0.864489 20.5624
337 2 2.95272 -0.26041 20.2339
338 2 3.68334 0.190069 20.7616
339 2 2.92217 -0.0290264 21.2865
340 2 2.20626 0.503195 20.8936
341 2 19.9818 7.34562 10.0836
342 2 19.0545 7.088 10.1309
343 2 19.0674 6.13458 10.3367
344 2 19.9832 6.16333 10.5651
345 2 20.4881 5.44465 10.0023
346 2 20.526 5.54869 8.88626
347 2 19.8432 5.22518 8.30075
348 2 20.26 5.93185 7.95445
349 2 20.2572 6.91558 8.03859
350 2 20.9478 7.10666 7.24243
351 2 43.0385 -13.2608 7.32701
352 2 42.3696 -12.5812 7.26276
353 2 42.29 -11.9496 6.50731
354 2 42.2993 -12.8919 6.2898
355 2 41.595 -12.6033 5.54455
356 2 41.2608 -12.785 6.50075
357 2 40.3898 -12.3633 6.63639
358 2 39.9237 -12.8787 5.96505
359 2 40.0562 -12.4349 4.99566
360 2 39.2239 -12.8651 5.1858
361 2 7.9558 -0.762292 30.0352
362 2 8.90288 -0.792501 30.2105
363 2 8.76263 -0.942181 29.3031
364 2 8.73868 -0.0374194 28.8224
365 2 7.83875 -0.034623 29.213
366 2 8.44607 0.492186 29.7345
367 2 9.35601 0.272371 29.7961
368 2 9.87979 -0.123361 30.4754
369 2 9.91137 -0.607192 29.691
370 2 9.75727 -0.217058 28.7998
371 2 11.0855 33.4759 29.9509
372 2 10.6923 32.5773 29.6801
373 2 10.6128 33.3671 28.9296
374 2 9.88644 34.0489 28.7696
375 2 10.5146 34.2454 28.1092
376 2 11.3044 34.7612 27.8487
377 2 11.1082 34.1745 26.9878
378 2 10.293 34.1904 26.475
379 2 10.3346 34.8851 27.0917
380 2 9.50035 35.1991 27.3263
381 2 13.3862 5.93275 36.6832
382 2 12.8753 6.47089 36.0537