ITEM: TIMESTEP
1000
ITEM: NUMBER OF ATOMS
1920
ITEM: BOX BOUNDS pp pp pp
0.0000000000000000e+00 3.2000000000000000e+01
0.0000000000000000e+00 3.2000000000000000e+01
0.0000000000000000e+00 3.2000000000000000e+01
ITEM: ATOMS id type x y z
1 1 1.2997 30.8812 29.5658
2 1 0.403167 31.0369 29.6547
3 1 0.473441 31.7166 30.2959
4 1 0.760104 30.9814 30.8242
5 1 0.765888 31.7389 31.4424
6 1 0.653175 0.266858 0.184048
7 1 0.318237 31.9257 1.12277
8 1 0.363415 0.938515 1.44007
9 1 0.879111 1.60555 2.05575
10 1 0.804904 1.83982 3.05563
11 1 1.44187 1.21957 3.17483
12 1 1.82069 0.91365 3.98691
13 1 1.77716 0.267363 4.77932
14 1 1.61304 31.3507 5.18932
15 1 1.29797 31.0759 6.11797
16 1 1.65683 31.3243 6.99569
17 1 1.44247 31.9474 7.68967
18 1 0.863657 0.716798 7.54377
19 1 0.126923 0.353921 8.24657
20 1 0.0656193 0.921357 9.01369
21 1 0.419864 0.872311 9.96025
22 1 0.415259 0.971005 10.9376
23 1 31.8775 1.54032 11.5159
24 1 0.209015 0.699127 11.9542
25 1 0.590877 0.537846 12.8055
26 1 1.20266 1.06439 13.4647
27 1 0.696019 1.09251 14.2444
28 1 0.581987 0.830315 15.1719
29 1 0.946272 1.0139 16.0398
30 1 1.88537 1.209 16.1001
31 1 2.39071 0.578684 16.5414
32 1 1.63802 31.9886 16.8264
33 1 6.09318 30.7485 30.7311
34 1 6.75657 31.274 31.1557
35 1 6.91101 31.2835 0.043459
36 1 6.18019 31.5871 0.668694
37 1 5.97777 31.5481 31.7119
38 1 6.42863 0.363983 31.5169
39 1 7.13488 0.356447 0.188648
40 1 6.16641 0.648946 0.476832
41 1 5.73913 0.517829 1.2557
42 1 6.19621 0.166298 1.96992
43 1 5.46439 0.471818 2.46901
44 1 6.01955 0.621759 3.4516
45 1 5.30673 0.479512 4.17118
46 1 5.4014 0.0905677 5.13347
47 1 6.19635 0.0976133 5.52453
48 1 5.65375 31.4781 6.15401
49 1 4.7897 31.7336 6.51048
50 1 5.25979 0.400561 7.11626
51 1 5.04651 0.322379 8.11786
52 1 4.71981 0.237839 9.04318
53 1 5.46127 0.48684 9.57767
54 1 5.69991 0.433382 10.5397
55 1 5.60824 0.0947786 11.3785
56 1 5.81549 31.5493 12.2355
57 1 6.56148 31.7181 12.7842
58 1 6.85089 31.6125 13.7105
59 1 5.90157 31.0818 13.6895
60 1 6.26758 30.6794 14.4474
61 1 6.75597 31.0349 15.1537
62 1 6.19126 30.3311 15.6565
63 1 6.37753 30.5455 16.5325
64 1 5.89018 30.0919 17.2584
65 1 7.534 31.7212 30.6944
66 1 8.10456 31.9322 31.4647
67 1 8.47724 0.0555433 30.5146
68 1 9.38141 0.311842 30.6511
69 1 9.26793 0.590467 31.6039
70 1 9.28001 31.798 0.217503
71 1 10.0516 0.0457148 0.735009
72 1 10.8074 31.9175 1.54211
73 1 11.213 0.338114 2.43016
74 1 11.5298 31.8293 3.17871
75 1 11.2063 31.5077 4.06533
76 1 10.8155 31.6001 5.02889
77 1 11.1828 31.5829 6.00657
78 1 11.7976 31.1371 6.50309
79 1 11.5526 31.6432 7.25758
80 1 11.3409 0.181455 8.12712
81 1 10.8111 31.4094 8.50972
82 1 10.0972 31.904 8.81471
83 1 10.5431 31.8213 9.65854
84 1 10.4844 31.6283 10.555
85 1 9.69774 0.152491 10.4673
86 1 8.89685 0.350252 11.0187
87 1 7.93124 31.9073 11.1181
88 1 8.01208 0.506104 11.9481
89 1 8.2686 31.6794 12.6362
90 1 9.16259 31.3875 12.5393
91 1 8.54923 30.9074 13.1328
92 1 7.7967 31.0766 13.6744
93 1 8.56806 31.5887 13.9643
94 1 9.05983 30.8357 14.0337
95 1 8.58724 30.5993 14.7414
96 1 8.75786 31.5128 15.0324
97 1 15.7952 1.0699 30.9692
98 1 14.9664 1.07621 30.485
99 1 15.1663 0.143367 30.3318
100 1 14.2091 0.0949757 30.353
101 1 14.6921 0.0528914 31.2691
102 1 14.1326 31.9286 0.123702
103 1 14.0332 31.9218 1.1308
104 1 14.5579 31.1518 1.52231
105 1 14.5012 31.5357 2.36918
106 1 13.9937 31.8809 3.03702
107 1 14.4829 0.445373 3.68384
108 1 15.0738 1.02553 4.37821
109 1 16.0834 0.807609 4.54818
110 1 15.9325 1.08695 5.51471
111 1 16.7483 0.528677 6.09256
112 1 16.9619 0.296758 7.00009
113 1 16.8733 1.08505 7.42273
114 1 16.9919 1.17988 8.37841
115 1 16.5807 0.422338 8.68503
116 1 16.4085 0.117101 9.64414
117 1 17.0551 0.715853 10.0969
118 1 16.1343 1.02375 10.3953
119 1 16.0616 1.87833 10.8916
120 1 16.5903 2.28181 11.7216
121 1 15.9338 2.30623 12.3598
122 1 15.6704 2.04589 13.2444
123 1 16.0576 1.22358 13.1425
124 1 15.076 1.21906 12.9416
125 1 15.1991 0.869418 13.8524
126 1 14.9499 0.713716 14.8798
127 1 15.8844 0.952301 14.5149
128 1 16.6625 0.798419 14.0528
129 1 22.1881 31.5588 31.3481
130 1 21.2981 31.6011 31.9477
131 1 20.7497 0.392715 31.8469
132 1 20.4743 0.668182 0.726031
133 1 19.9856 31.8644 0.614965
134 1 19.3374 0.444357 0.916375
135 1 19.5167 31.9693 1.62927
136 1 18.6026 31.8862 2.02496
137 1 18.5801 31.6136 2.93926
138 1 17.5934 31.7403 3.1955
139 1 18.0233 0.153649 3.90643
140 1 17.9178 31.1136 4.07015
141 1 18.7216 31.0922 4.50671
142 1 19.2964 31.4982 5.12673
143 1 20.2707 31.2959 5.09195
144 1 20.7879 31.4037 6.01179
145 1 21.1593 0.153936 6.28246
146 1 21.6841 0.434661 7.08622
147 1 21.3263 0.379693 8.09657
148 1 21.6194 0.173468 9.01655
149 1 20.7493 0.147021 9.30876
150 1 21.2376 0.512582 10.0488
151 1 21.5003 31.7923 10.565
152 1 21.6912 31.9594 11.4381
153 1 21.805 0.906774 11.5332
154 1 21.8474 1.31322 12.4361
155 1 21.2497 0.626308 12.6278
156 1 22.137 0.234574 12.8019
157 1 21.8089 0.553389 13.7038
158 1 20.8889 0.697684 13.5228
159 1 20.6551 31.7062 13.3892
160 1 21.6637 31.471 13.4157
161 1 26.4611 31.499 29.6398
162 1 26.1115 0.279553 30.0998
163 1 26.8284 31.9509 30.7164
164 1 25.9818 31.7491 31.0149
165 1 25.3662 31.4147 31.7386
166 1 24.9865 31.1696 0.537361
167 1 25.6255 31.0885 1.24547
168 1 25.9923 31.0688 2.1681
169 1 26.7501 31.4133 1.73703
170 1 26.6129 31.7788 2.70024
171 1 26.4055 31.1561 3.41572
172 1 25.7679 31.1891 4.10526
173 1 25.697 31.8593 4.87023
174 1 26.3429 31.7249 5.48286
175 1 26.1027 31.2282 6.3452
176 1 25.1466 31.275 6.3526
177 1 25.0201 31.8173 7.10688
178 1 25.636 0.160248 7.72621
179 1 26.2409 0.270577 8.40087
180 1 26.6551 0.236143 9.2659
181 1 25.7109 0.212488 9.60959
182 1 26.2099 0.0924112 10.5048
183 1 25.2627 0.206545 10.4909
184 1 25.1588 31.4907 11.1261
185 1 24.8868 31.2463 12.0448
186 1 24.725 31.923 12.7227
187 1 24.9305 0.277608 13.5022
188 1 25.2856 1.01456 13.9877
189 1 25.6298 1.83372 14.6176
190 1 24.864 1.38764 14.9353
191 1 24.3494 1.3142 15.7052
192 1 23.6972 0.994904 15.151
193 1 2.20076 6.68111 31.4944
194 1 2.42139 5.96331 30.8786
195 1 1.63403 5.71201 31.3938
196 1 0.649389 5.88448 31.393
197 1 0.980555 6.31369 0.26446
198 1 0.675904 6.38742 1.21856
199 1 0.184439 6.79199 1.8886
200 1 31.9312 7.41383 2.56202
201 1 0.488801 7.36656 3.36866
202 1 0.584956 6.51735 3.77583
203 1 1.24985 7.14746 4.23096
204 1 1.214 6.35549 4.92051
205 1 1.10214 6.35571 5.94277
206 1 1.23272 6.90415 6.75571
207 1 0.799867 6.06455 6.918
208 1 1.30339 5.83372 7.68323
209 1 0.940517 6.06095 8.47751
210 1 0.910059 5.23316 9.08184
211 1 0.185828 4.77588 9.58528
212 1 0.155908 5.35954 10.357
213 1 31.7916 5.13742 11.211
214 1 31.7427 5.4088 12.0779
215 1 31.9031 5.71817 12.9368
216 1 31.2014 5.11364 13.0918
217 1 30.4313 5.44117 13.5458
218 1 31.1156 5.38116 14.3174
219 1 30.6584 4.93133 15.1256
220 1 30.4583 5.23972 16.1667
221 1 30.2644 4.3405 16.418
222 1 30.7282 4.49207 17.2456
223 1 31.4662 4.77973 16.6895
224 1 31.528 4.99321 15.7466
225 1 5.5818 6.97711 30.2056
226 1 5.78933 7.48101 30.9508
227 1 5.7811 6.79219 31.6208
228 1 6.55309 6.76658 0.209127
229 1 5.8242 6.33414 0.587005
230 1 5.14171 6.18425 1.24603
231 1 4.81561 6.1469 2.1102
232 1 4.09839 5.6785 2.42853
233 1 4.44788 5.42705 3.28189
234 1 3.86601 5.98172 3.87885
235 1 4.73831 5.90654 4.43008
236 1 5.29756 6.62113 4.69335
237 1 4.92152 6.57159 5.63725
238 1 4.80859 6.35718 6.60001
239 1 4.87018 6.88942 7.42692
240 1 5.37319 6.29979 7.99657
241 1 4.71296 6.18519 8.68353
242 1 3.82196 5.99331 8.75423
243 1 3.81119 6.15849 9.69289
244 1 3.39787 6.90497 9.99202
245 1 2.91571 7.70914 10.378
246 1 2.79957 7.80824 11.4375
247 1 2.6779 7.05731 12.0504
248 1 2.41675 6.69359 13.0223
249 1 2.44066 6.83417 13.9579
250 1 2.35223 5.99011 14.3475
251 1 2.85353 6.59293 14.9301
252 1 3.34346 6.60085 15.8563
253 1 2.64901 7.3193 15.7271
254 1 2.57684 6.90479 16.5597
255 1 1.55729 6.95807 16.205
256 1 1.30644 7.88666 16.2988
257 1 12.0011 6.5602 30.0193
258 1 11.1653 6.14269 29.7906
259 1 11.5817 5.721 30.7135
260 1 10.7756 5.29659 30.3926
261 1 10.507 5.33367 31.3226
262 1 11.0617 5.12266 0.222853
263 1 10.7118 4.6414 0.986274
264 1 11.4669 4.44446 1.50051
265 1 11.5021 5.24062 1.96809
266 1 11.9525 4.97216 2.8032
267 1 11.9587 4.46096 3.68609
268 1 11.3196 5.11198 4.03712
269 1 10.4838 4.62095 4.12907
270 1 9.80059 4.92369 4.6336
271 1 9.02042 5.56575 4.82284
272 1 8.80147 6.12453 5.57667
273 1 8.38146 6.12912 6.52595
274 1 9.06169 6.75941 7.06813
275 1 8.56805 7.27907 7.71392
276 1 7.98635 7.01485 8.41186
277 1 8.22647 6.53565 9.29436
278 1 7.83729 6.15058 10.1511
279 1 8.17031 5.8144 10.9437
280 1 8.57893 6.43167 11.5259
281 1 9.47634 6.36546 11.9429
282 1 9.42187 6.78544 12.8102
283 1 9.47075 6.80353 13.8908
284 1 9.29276 7.44884 14.6176
285 1 9.63313 7.28226 15.4968
286 1 10.2575 6.67633 15.8194
287 1 9.96871 6.76759 16.7745
288 1 9.19738 6.76196 17.4438
289 1 15.0229 6.52708 28.8379
290 1 15.2764 7.45053 29.0705
291 1 15.6956 7.27442 29.9367
292 1 15.7536 7.62414 30.835
293 1 15.7769 7.29407 31.7401
294 1 16.7222 7.52535 31.7416
295 1 16.0325 8.24021 31.8779
296 1 15.2087 8.07412 0.256293
297 1 14.8641 7.09791 0.247978
298 1 14.7581 7.10149 1.17788
299 1 15.3548 7.34108 1.74382
300 1 15.9299 7.10491 2.61908
301 1 15.7823 6.70055 3.55235
302 1 15.4787 6.71656 4.44063
303 1 15.2899 6.27314 5.32099
304 1 15.5782 6.22499 6.22378
305 1 15.7149 5.54085 6.85843
306 1 15.9772 6.02168 7.74823
307 1 15.8211 5.87499 8.76422
308 1 16.5112 5.61755 9.41336
309 1 15.8304 5.72716 10.1869
310 1 16.1403 6.41722 10.859
311 1 15.2124 6.12321 11.1814
312 1 15.7468 5.97993 11.9342
313 1 15.322 6.2712 12.8908
314 1 16.1534 6.75802 13.0777
315 1 16.0696 7.43994 13.8999
316 1 16.3776 7.60667 14.7915
317 1 16.0742 6.67909 14.9371
318 1 15.6219 6.94776 15.6569
319 1 16.6089 7.28072 15.8462
320 1 16.9374 6.68207 16.5897
321 1 23.3625 6.74721 30.3753
322 1 22.3982 6.93004 30.2584
323 1 22.779 6.14146 30.9295
324 1 22.3602 6.79267 31.474
325 1 21.5709 7.31061 31.2282
326 1 21.091 7.44834 0.121934
327 1 20.8066 7.63791 1.01393
328 1 20.3859 8.01893 1.78542
329 1 20.3138 7.39797 2.47206
330 1 20.4739 7.62464 3.53057
331 1 19.8813 7.80944 4.24023
332 1 19.406 7.13343 4.79205
333 1 20.2334 7.01865 5.31496
334 1 20.2953 6.10096 5.6769
335 1 20.3115 5.64162 6.5402
336 1 20.3624 5.37123 7.6357
337 1 19.8176 4.54971 7.23138
338 1 19.4327 4.59115 8.09117
339 1 19.2209 4.86222 9.01239
340 1 20.0764 4.34036 9.12942
341 1 19.8479 4.37528 10.0953
342 1 19.2531 4.795 10.7285
343 1 20.0923 5.22547 10.8473
344 1 20.0986 4.45493 11.2739
345 1 20.4127 4.57799 12.2656
346 1 19.4376 4.66011 12.5039
347 1 20.0192 5.46201 12.5803
348 1 20.6009 5.32211 13.4174
349 1 20.2872 4.76196 14.1458
350 1 20.9293 4.9044 14.7907
351 1 20.5668 4.68629 15.7255
352 1 20.3889 5.30535 16.5702
353 1 24.4847 5.19177 30.4037
354 1 24.2742 5.04726 31.3015
355 1 24.1319 6.00791 31.1128
356 1 23.989 6.56314 31.9268
357 1 24.2977 5.72202 0.32414
358 1 24.909 5.41937 1.04402
359 1 25.3914 6.08085 1.41205
360 1 26.0281 5.31749 1.8952
361 1 25.3653 5.21398 2.61354
362 1 25.5245 4.35074 3.17378
363 1 25.6749 4.17694 4.18564
364 1 26.3853 4.69984 4.48232
365 1 26.4622 4.75902 5.54207
366 1 25.7622 4.30548 5.95504
367 1 25.8885 4.13401 7.02232
368 1 25.4133 4.01479 7.83729
369 1 25.8641 4.23354 8.86735
370 1 26.1537 4.21955 9.79296
371 1 26.4823 4.83833 10.5106
372 1 26.1818 5.49687 11.077
373 1 25.3382 5.47883 11.5582
374 1 25.9695 5.17058 12.1256
375 1 26.0285 4.48406 12.9361
376 1 26.7063 4.04502 13.5737
377 1 25.945 4.2703 14.1454
378 1 26.3798 5.08224 13.8264
379 1 26.906 5.55318 14.4736
380 1 27.5875 5.98247 13.7914
381 1 28.045 6.6219 14.3442
382 1 28.6597 7.33402 14.3005
383 1 28.7634 6.93394 13.4329
384 1 29.6927 7.16605 13.0781
385 1 31.7319 12.0554 30.3828
386 1 0.557495 12.4322 30.9818
387 1 31.6661 12.2338 31.3756
388 1 31.7944 11.1745 31.2627
389 1 31.4816 11.4906 0.0458828
390 1 31.4972 11.4285 1.02418
391 1 31.567 12.3751 0.612447
392 1 31.498 12.991 1.32345
393 1 0.299226 12.3195 1.25786
394 1 0.991804 11.8716 1.84247
395 1 0.729721 12.0027 2.86218
396 1 1.60109 11.7916 3.31591
397 1 1.13305 11.306 3.98965
398 1 1.08273 11.7946 4.84285
399 1 0.758932 12.1141 5.75425
400 1 0.152714 11.6695 6.46077
401 1 0.00642056 11.9291 7.42512
402 1 31.7607 12.0458 8.35204
403 1 30.9428 12.111 8.90022
404 1 31.7471 12.2418 9.48038
405 1 31.9048 11.898 10.4109
406 1 0.30559 11.2382 11.0571
407 1 0.778864 11.575 11.9149
408 1 0.932128 11.792 12.7904
409 1 1.25512 10.9722 13.1733
410 1 1.77622 10.1335 13.4503
411 1 1.56146 10.495 14.2386
412 1 2.25724 11.0484 13.724
413 1 2.88843 10.7948 14.4161
414 1 3.21015 11.5192 13.9276
415 1 3.14597 12.4763 13.9181
416 1 3.83648 12.0986 13.3281
417 1 4.01161 11.341 29.6657
418 1 3.25203 10.9637 30.2475
419 1 3.71469 11.6372 30.6384
420 1 4.41883 11.88 31.3213
421 1 3.67862 12.1471 31.8623
422 1 3.6564 11.0712 31.736
423 1 4.18935 10.2957 31.8697
424 1 4.18392 10.0178 0.705033
425 1 3.99513 10.1161 1.6104
426 1 3.59831 10.4226 2.38992
427 1 2.93329 10.8939 2.96763
428 1 3.329 11.0944 3.8167
429 1 3.3949 11.8443 4.43376
430 1 3.60341 12.2302 5.27495
431 1 3.62257 11.4211 5.7855
432 1 3.8109 11.1161 6.70034
433 1 3.70969 10.7007 7.52038
434 1 4.48847 11.1217 7.70115
435 1 4.4785 11.9715 8.10479
436 1 5.26389 11.6391 8.52795
437 1 5.46313 11.1079 9.3326
438 1 4.83366 11.3768 10.1235
439 1 5.43583 10.7711 10.5062
440 1 5.75153 11.5729 10.9119
441 1 5.40928 11.6549 11.9007
442 1 5.19884 11.6567 12.8236
443 1 4.64195 11.3282 13.5111
444 1 4.06825 11.5687 14.3844
445 1 3.84042 11.8328 15.2909
446 1 3.57397 11.6746 16.1749
447 1 2.79333 12.2101 16.1702
448 1 2.61567 11.3419 16.3245
449 1 9.65831 16.2781 0.360999
450 1 10.0503 15.4804 0.136136
451 1 10.9408 15.633 31.7885
452 1 11.0715 14.9237 0.530628
453 1 11.2587 13.9023 0.289228
454 1 10.378 13.6398 0.535128
455 1 10.7018 14.0801 1.4513
456 1 10.4138 13.9872 2.41172
457 1 11.1338 14.2509 3.00737
458 1 11.4934 13.9509 3.80686
459 1 11.7705 13.1579 4.25405
460 1 11.6621 12.601 5.06501
461 1 10.8577 12.7792 5.58757
462 1 11.6207 12.9167 6.17936
463 1 10.8982 13.0874 6.79877
464 1 11.877 12.91 7.12569
465 1 12.1166 12.3962 7.93886
466 1 12.4588 12.0325 8.75116
467 1 12.0225 11.4983 9.34739
468 1 12.1842 12.2345 10.0038
469 1 11.5675 12.6597 10.6859
470 1 10.9639 12.6426 11.4608
471 1 10.3994 12.6322 12.3057
472 1 11.2435 12.1899 12.336
473 1 10.6594 12.2895 13.2345
474 1 10.7272 11.857 14.144
475 1 11.701 11.5904 14.2022
476 1 12.4958 11.4035 14.576
477 1 12.0612 11.5779 15.3674
478 1 11.5535 12.4632 15.4449
479 1 10.6558 12.2764 15.7813
480 1 11.1176 11.3822 15.5652
481 1 14.4102 11.5279 30.9892
482 1 14.7586 12.1511 31.7135
483 1 15.7293 11.967 31.8518
484 1 16.1469 12.8376 0.0329656
485 1 16.6479 13.5502 0.528704
486 1 16.4865 13.2888 1.41227
487 1 16.6349 12.4905 0.82846
488 1 16.0218 11.6837 0.810529
489 1 15.6234 11.8407 1.60558
490 1 14.7619 12.4305 1.87312
491 1 15.6169 12.5802 2.21285
492 1 15.989 12.9731 3.06427
493 1 15.6392 12.6738 3.93988
494 1 15.5987 12.642 4.96069
495 1 15.8553 12.5501 5.90357
496 1 15.6538 11.9064 6.59563
497 1 15.1965 12.1294 7.48099
498 1 15.5124 11.8714 8.35226
499 1 15.7168 12.7996 8.7343
500 1 15.1546 12.2073 9.35852
501 1 16.0092 11.9028 9.69505
502 1 15.3903 11.1541 9.84648
503 1 14.8534 10.4416 10.2304
504 1 15.7341 10.1506 10.154
505 1 16.309 11.1234 10.3729
506 1 16.3876 10.6696 11.2613
507 1 16.1238 10.53 12.1899
508 1 16.3375 10.9621 13.1153
509 1 16.8737 11.1708 13.9307
510 1 16.4831 10.8044 14.6834
511 1 16.5647 10.0046 15.3882
512 1 17.4163 9.90419 15.0444
513 1 20.2702 10.6225 29.8851
514 1 20.0049 10.6174 30.7799
515 1 19.8232 11.4951 31.0741
516 1 18.7549 11.6688 30.9288
517 1 18.0842 11.3833 31.6174
518 1 18.7453 12.0043 0.0797048
519 1 19.402 11.3053 0.127317
520 1 20.3335 11.3088 0.468664
521 1 19.6622 11.9887 1.00146
522 1 19.1958 12.1126 1.83868
523 1 18.8112 12.1683 2.72202
524 1 19.0909 11.9555 3.6052
525 1 19.2103 12.9241 3.95799
526 1 18.3603 13.1214 4.45538
527 1 19.0303 12.9442 5.2142
528 1 19.585 12.6349 5.95777
529 1 19.8155 12.4035 6.86056
530 1 19.8019 13.3498 7.15757
531 1 19.5272 12.9381 7.97747
532 1 20.0986 12.8548 8.71214
533 1 19.7454 12.4478 9.43735
534 1 19.3419 11.9077 10.2613
535 1 20.0624 12.0074 10.7834
536 1 19.3666 12.36 11.3554
537 1 20.1269 12.0654 12.0094
538 1 19.6989 12.7708 12.5624
539 1 20.2418 12.081 13.1309
540 1 20.6817 12.5326 13.8014
541 1 20.4385 13.1468 14.4468
542 1 21.1884 13.4789 15.1491
543 1 20.8714 12.5729 15.1565
544 1 20.0708 12.4091 15.7197
545 1 27.7751 8.79185 30.3681
546 1 27.413 9.52006 30.8996
547 1 28.0853 9.08606 31.5294
548 1 27.5285 9.79398 31.9363
549 1 26.9406 10.234 0.534442
550 1 26.1737 10.6938 0.964844
551 1 25.4419 11.3313 0.824964
552 1 25.0248 11.6005 1.68279
553 1 24.5911 11.2808 2.53025
554 1 24.7841 12.2919 2.66074
555 1 24.4539 13.1492 2.97109
556 1 23.6602 13.6826 3.25432
557 1 23.9032 14.2004 3.96109
558 1 24.6009 13.7958 4.5602
559 1 24.3271 14.5707 5.08634
560 1 23.8445 14.6061 5.98516
561 1 24.3402 14.9557 6.86931
562 1 24.308 14.5887 7.79478
563 1 25.2311 14.4496 8.06564
564 1 25.3039 14.3799 9.02653
565 1 25.2574 14.7698 9.91079
566 1 24.7961 14.0148 10.1482
567 1 24.6586 13.8473 11.1435
568 1 25.5674 14.0293 11.2931
569 1 25.4671 14.9429 11.6361
570 1 24.6247 15.4421 11.9446
571 1 24.105 14.6336 12.1184
572 1 24.7538 13.8587 12.375
573 1 24.323 14.0463 13.2228
574 1 24.2874 14.5673 14.0742
575 1 23.3882 14.6828 14.1862
576 1 23.4713 15.5565 13.9985
577 1 0.100406 17.113 30.2143
578 1 0.341506 17.6481 30.9246
579 1 0.554328 16.9527 31.6169
580 1 1.2813 16.7535 0.168363
581 1 2.06119 16.9887 0.79097
582 1 1.71998 16.0711 0.999785
583 1 1.02082 16.6786 1.32263
584 1 1.48586 16.8976 2.10362
585 1 0.47399 16.9209 2.21877
586 1 0.542653 16.9935 3.29919
587 1 0.309438 17.4626 4.00427
588 1 0.665942 17.9982 4.6604
589 1 32.0233 17.4034 4.95585
590 1 0.357378 16.991 5.8626
591 1 0.742639 16.9229 6.67738
592 1 0.331427 17.6113 7.17322
593 1 31.5102 17.2675 7.33885
594 1 0.109685 17.1637 8.07763
595 1 0.111247 17.5194 8.91351
596 1 0.617609 17.4194 9.70114
597 1 0.60789 16.723 10.2819
598 1 0.37055 16.0299 10.879
599 1 31.8648 16.2045 11.6848
600 1 0.508176 16.4196 12.3819
601 1 0.965974 16.9946 13.0416
602 1 1.50519 16.6911 13.6906
603 1 1.99647 16.7032 14.5829
604 1 1.01413 17.0271 14.9922
605 1 0.698884 16.7735 15.883
606 1 0.232446 17.6369 16.1549
607 1 0.942782 18.0087 16.6722
608 1 1.71225 17.8845 15.9893
609 1 4.30368 18.1946 30.1041
610 1 4.74587 18.9697 29.8119
611 1 5.02206 18.5712 30.6569
612 1 5.86197 19.0823 30.5589
613 1 5.97377 18.7229 31.3954
614 1 5.66775 17.8573 31.76
615 1 6.15375 18.3904 0.415797
616 1 6.07625 17.291 0.572905
617 1 5.28265 16.8163 0.842799
618 1 5.31412 16.6154 1.84586
619 1 5.13718 16.7423 2.77669
620 1 5.24461 16.6882 3.69904
621 1 5.81928 16.702 4.63882
622 1 5.88469 16.7263 5.52894
623 1 6.14051 17.0694 6.48312
624 1 6.16928 17.9219 6.79993
625 1 6.09391 18.382 7.63431
626 1 6.69258 18.2938 8.32389
627 1 6.56166 18.2639 9.28946
628 1 5.8639 18.0262 9.9192
629 1 5.78914 18.3666 10.8974
630 1 5.76149 18.6676 11.9193
631 1 5.5981 18.3105 12.772
632 1 6.34436 18.3579 13.3547
633 1 5.70096 19.06 13.5386
634 1 5.79399 19.9963 13.6911
635 1 6.45378 20.5243 13.2805
636 1 6.20942 21.0849 14.0029
637 1 6.78583 20.3671 14.2428
638 1 6.32949 19.6482 14.662
639 1 5.57548 20.3579 14.5861
640 1 5.74353 20.5221 15.5087
641 1 11.512 17.9953 29.7951
642 1 10.5934 18.1653 30.2427
643 1 9.85047 17.4796 29.8821
644 1 9.87418 17.2807 30.8652
645 1 9.24673 17.79 31.5196
646 1 8.46059 18.1853 31.9785
647 1 8.40058 17.649 0.856027
648 1 8.6927 18.0461 1.72861
649 1 8.22282 17.9934 2.6467
650 1 9.04536 17.6033 2.82015
651 1 9.68348 17.207 3.56534
652 1 10.1513 16.9535 4.33862
653 1 10.5735 17.4345 5.07811
654 1 11.1778 17.3285 5.77755
655 1 10.8639 17.7239 6.62818
656 1 11.0713 18.1655 7.49086
657 1 10.6482 18.6274 8.24913
658 1 11.0579 17.7808 8.52745
659 1 11.4881 17.7373 9.40716
660 1 11.231 18.2931 10.1913
661 1 11.3042 18.7413 11.1016
662 1 11.0736 18.417 12.0371
663 1 10.9856 18.5008 12.9493
664 1 10.9354 19.3452 13.3456
665 1 10.1289 19.2066 13.7818
666 1 10.4114 19.593 14.6168
667 1 9.76531 19.1025 15.2638
668 1 9.05459 19.3014 15.801
669 1 8.87197 18.935 16.6543
670 1 9.79631 19.227 16.505
671 1 9.80498 18.2689 16.3628
672 1 9.11962 17.8995 16.9354
673 1 14.2876 18.7654 0.792791
674 1 14.5355 18.7963 31.8272
675 1 15.1665 18.9432 0.632843
676 1 15.3485 19.933 0.539706
677 1 15.6549 20.7161 1.15179
678 1 16.3723 20.026 1.01549
679 1 16.0957 19.9805 2.02252
680 1 16.2302 19.5083 2.85303
681 1 16.2129 18.6957 2.30577
682 1 15.7813 18.5304 3.2317
683 1 15.2845 18.5848 4.05882
684 1 16.1273 18.6441 4.47186
685 1 15.4806 18.0634 4.85365
686 1 15.5995 17.2185 5.44761
687 1 15.7055 17.3212 6.41794
688 1 15.1374 17.7706 7.07661
689 1 15.4109 18.097 8.024
690 1 15.0885 18.418 8.84362
691 1 14.9873 17.9094 9.66593
692 1 14.4298 17.374 10.2501
693 1 14.7006 17.7475 11.1016
694 1 15.1231 17.4277 11.8579
695 1 14.8152 17.4939 12.8182
696 1 15.6302 16.8701 12.8125
697 1 16.5106 16.4572 13.1931
698 1 16.8193 16.6871 14.1586
699 1 17.2811 17.2545 14.7438
700 1 17.9107 16.8202 14.2443
701 1 17.6937 16.4892 15.1801
702 1 18.2096 15.7376 15.2156
703 1 19.1231 15.9695 15.2616
704 1 18.8907 16.5658 15.9802
705 1 21.8861 15.0052 30.1717
706 1 22.5898 14.9766 30.9035
707 1 23.3815 15.456 30.6809
708 1 23.5328 15.8601 31.5574
709 1 22.6946 15.9056 0.0170031
710 1 22.5355 16.5824 0.646666
711 1 22.3637 17.3788 1.15145
712 1 21.8572 17.9587 1.71096
713 1 22.0802 18.3548 2.47424
714 1 22.3338 18.199 3.40736
715 1 21.4127 17.9176 3.45042
716 1 21.2532 18.7389 3.06224
717 1 21.3571 18.6984 4.0815
718 1 21.8535 19.0877 4.92856
719 1 21.2014 18.8836 5.73632
720 1 20.3278 19.2219 6.19278
721 1 20.171 19.5239 7.15303
722 1 20.6431 19.0596 7.94831
723 1 20.9369 18.6835 8.94429
724 1 20.2803 18.5298 9.74606
725 1 20.181 18.8066 10.6726
726 1 20.3255 18.0904 11.2927
727 1 21.0856 17.5457 11.4343
728 1 20.8463 17.8838 12.2727
729 1 21.2767 17.3012 12.8349
730 1 21.2125 17.5249 13.8379
731 1 22.1711 17.537 14.2505
732 1 21.7765 18.4767 14.3276
733 1 21.5975 17.848 15.108
734 1 21.5424 17.8089 16.1235
735 1 22.0828 18.2214 16.7962
736 1 21.8518 18.4624 17.6723
737 1 25.4386 20.1253 29.2931
738 1 25.2319 20.3153 30.1129
739 1 25.1462 19.5979 30.7283
740 1 25.9837 19.132 30.8798
741 1 25.3897 18.4272 31.1635
742 1 25.5249 19.1227 31.8077
743 1 26.1064 19.0687 0.545539
744 1 25.5019 19.0057 1.31472
745 1 24.871 19.8312 1.21042
746 1 25.0395 19.6582 2.15176
747 1 25.5356 19.2691 3.04465
748 1 25.341 19.1049 3.95225
749 1 25.9324 19.6417 4.46165
750 1 25.4574 19.1684 5.1795
751 1 24.8153 19.3909 5.81897
752 1 24.6415 19.997 6.74921
753 1 24.419 20.5199 7.49954
754 1 24.539 21.0418 8.409
755 1 25.1309 20.5538 8.96338
756 1 25.7346 19.8615 9.23078
757 1 25.5052 19.9354 10.1315
758 1 26.0424 20.1275 10.8652
759 1 25.4959 20.0343 11.7021
760 1 25.0171 19.3665 11.1378
761 1 24.1501 19.1961 11.7607
762 1 24.8932 19.251 12.3546
763 1 24.3467 19.995 12.6939
764 1 25.1265 20.4605 13.062
765 1 26.1149 20.3293 13.3055
766 1 25.5271 19.9889 13.9905
767 1 25.3507 19.8663 14.927
768 1 26.1619 20.0262 15.4816
769 1 1.22167 25.7765 31.059
770 1 1.55835 26.0108 31.8999
771 1 1.61734 25.0912 31.8038
772 1 0.683417 24.9303 0.124905
773 1 0.436821 24.5728 0.922139
774 1 0.107213 25.0954 1.61151
775 1 31.8528 24.5319 2.39974
776 1 31.8258 24.1945 3.29442
777 1 31.366 24.7819 3.86807
778 1 31.5055 23.8295 4.21503
779 1 30.6079 24.0216 4.63625
780 1 31.4034 24.5217 5.00203
781 1 30.9877 24.4657 5.86916
782 1 31.4859 24.1321 6.66207
783 1 0.407415 24.1491 6.28205
784 1 0.693262 24.3784 7.14046
785 1 31.8272 24.5151 7.53695
786 1 31.2889 23.6367 7.51634
787 1 31.3738 23.4348 8.50213
788 1 31.198 24.4086 8.46293
789 1 31.2755 24.9471 9.21631
790 1 31.6259 24.4474 9.94
791 1 0.36042 24.3578 10.6963
792 1 0.627534 24.802 11.4812
793 1 0.392513 25.6016 12.0135
794 1 0.786325 25.6297 12.9116
795 1 1.51146 24.9095 12.9365
796 1 1.99977 24.2546 13.3295
797 1 2.04558 25.0025 14.0079
798 1 2.31088 24.2341 14.699
799 1 2.39647 24.7317 15.5793
800 1 1.49939 25.1029 15.4023
801 1 4.14975 25.0305 30.0466
802 1 4.68388 24.5171 30.6108
803 1 4.45475 23.8023 31.2455
804 1 4.04707 23.7645 30.4042
805 1 3.59634 23.0548 30.7374
806 1 3.55012 22.6025 31.5659
807 1 4.18477 23.1511 31.9739
808 1 3.51731 23.7159 0.46806
809 1 3.06399 23.1474 1.12456
810 1 2.47987 23.8812 1.35115
811 1 3.05979 23.945 2.11337
812 1 3.53301 24.2219 2.94766
813 1 4.29611 23.7489 3.13288
814 1 5.21162 23.5761 3.45587
815 1 4.83212 22.8333 3.94307
816 1 5.19083 22.6958 4.89447
817 1 5.14729 23.4228 5.58589
818 1 5.01454 23.4908 6.53547
819 1 5.79439 23.7746 6.89818
820 1 5.62986 23.4874 7.8444
821 1 5.17124 23.8884 8.63419
822 1 4.96496 23.6721 9.61154
823 1 5.13012 24.0364 10.5153
824 1 4.75301 24.0508 11.4271
825 1 4.84458 23.4002 12.1586
826 1 5.15517 23.1825 13.0563
827 1 4.95855 23.0878 13.9813
828 1 5.26458 24.0821 13.8696
829 1 5.8769 24.7894 14.2515
830 1 5.76557 25.5529 14.856
831 1 5.85806 24.8572 15.4469
832 1 6.69825 24.253 15.2385
833 1 9.5056 21.9185 30.3941
834 1 9.12412 22.0602 31.3308
835 1 8.17034 22.2562 31.4635
836 1 7.58651 22.9616 31.814
837 1 6.79758 23.084 0.350772
838 1 7.42787 23.3162 1.01203
839 1 7.66651 22.3858 1.43372
840 1 8.24966 22.5841 2.23483
841 1 8.23803 23.4712 2.21774
842 1 8.41283 23.1306 3.15587
843 1 8.32604 23.5068 4.11752
844 1 7.98481 24.3451 4.35051
845 1 7.1084 23.9484 4.20701
846 1 7.50753 23.3979 4.97663
847 1 7.87033 23.2764 5.81461
848 1 8.55731 22.9148 6.20294
849 1 9.07483 22.857 7.04799
850 1 9.78141 22.9571 7.73097
851 1 10.6868 23.3845 8.07236
852 1 10.9432 23.0785 8.9143
853 1 10.7628 22.7869 9.82944
854 1 10.9682 22.5982 10.7641
855 1 10.2477 23.0455 11.2527
856 1 10.1499 23.9443 11.7202
857 1 9.79361 23.6644 12.5972
858 1 10.1574 23.1704 13.5654
859 1 10.1311 23.475 14.5373
860 1 10.765 24.2378 14.85
861 1 11.5594 24.9679 14.8211
862 1 11.45 24.6524 15.7128
863 1 11.5018 24.4754 16.6532
864 1 11.5152 24.5095 17.6274
865 1 13.269 24.687 30.5687
866 1 13.8868 24.8873 29.7731
867 1 14.325 25.1977 30.5746
868 1 14.6007 24.3146 30.7909
869 1 14.8935 23.5762 31.3602
870 1 14.8637 23.3959 0.39873
871 1 13.9012 23.0689 0.350085
872 1 13.7726 23.8978 0.812139
873 1 14.4549 24.0075 1.45702
874 1 14.0356 23.3671 2.03435
875 1 14.2582 24.2744 2.3956
876 1 14.0232 24.5361 3.29701
877 1 14.1063 24.0311 4.1751
878 1 14.8054 24.3331 4.92521
879 1 14.9778 24.381 5.86217
880 1 14.5414 23.6588 6.36663
881 1 14.9313 24.3276 7.02016
882 1 14.7096 23.6006 7.62883
883 1 14.9665 24.0537 8.41433
884 1 14.3044 23.6552 8.96733
885 1 13.6385 24.0807 9.50728
886 1 13.8286 23.9714 10.4292
887 1 14.1351 23.8167 11.3261
888 1 14.5764 23.566 12.1811
889 1 14.264 23.0646 13.0106
890 1 15.1412 22.9412 13.3844
891 1 14.6754 23.8471 13.3435
892 1 15.2593 23.7598 14.0702
893 1 14.9543 24.3431 14.8669
894 1 14.072 24.0695 14.4067
895 1 14.0066 23.149 14.33
896 1 13.486 23.5576 13.4587
897 1 22.5483 25.3521 29.9631
898 1 21.5672 25.8141 29.7508
899 1 21.3737 25.9893 30.7312
900 1 20.5742 25.4582 30.513
901 1 20.2628 25.1922 31.353
902 1 20.9112 25.04 0.0772646
903 1 20.6231 24.2186 0.735968
904 1 21.1061 23.9746 1.5771
905 1 20.6697 23.6782 2.34357
906 1 20.1437 23.9367 3.04287
907 1 19.6946 23.1037 3.21011
908 1 19.5613 22.4091 3.94869
909 1 19.2846 23.265 4.34974
910 1 18.7534 24.0461 4.30058
911 1 19.4778 24.2514 4.98674
912 1 19.5453 25.1332 5.53739
913 1 20.0923 25.4537 6.20154
914 1 19.7083 25.985 6.86324
915 1 19.4265 26.2027 7.84881
916 1 18.9522 25.716 8.54127
917 1 19.5309 25.194 9.13505
918 1 19.6022 24.3121 9.36657
919 1 19.0953 24.3161 10.1145
920 1 18.9963 24.4218 11.0487
921 1 19.5253 24.8245 11.7992
922 1 18.9815 24.6432 12.6505
923 1 19.912 24.5454 12.9243
924 1 19.5517 23.8316 13.4886
925 1 19.6252 24.0032 14.4378
926 1 19.3861 23.3604 15.1224
927 1 19.1563 23.4647 16.0895
928 1 19.9184 23.9124 16.4136
929 1 23.2926 26.146 29.9352
930 1 23.7586 25.5582 30.5094
931 1 23.1607 26.215 31.0063
932 1 23.6683 27.0567 31.3274
933 1 24.2066 26.3269 31.162
934 1 23.8208 26.2509 0.286622
935 1 24.0423 25.3397 0.646664
936 1 24.7139 24.6336 0.329566
937 1 24.5581 24.3169 1.11917
938 1 24.6067 24.1498 2.02982
939 1 25.1883 24.3105 2.81456
940 1 25.3184 23.7358 3.65175
941 1 25.5787 23.5639 4.63705
942 1 25.8759 24.2489 5.22034
943 1 26.0221 23.6488 5.96996
944 1 25.9226 24.1137 6.83314
945 1 25.7517 23.7241 7.69597
946 1 25.7411 22.9967 8.44366
947 1 25.5086 23.2688 9.36381
948 1 26.4001 23.1799 9.27905
949 1 26.361 22.6222 10.1008
950 1 26.9446 23.3096 10.3662
951 1 26.7959 23.5421 11.3737
952 1 26.1986 23.6578 12.2289
953 1 25.8653 23.6801 13.1829
954 1 25.9829 22.8559 13.7836
955 1 26.8759 22.6648 13.5874
956 1 27.4639 23.5551 13.718
957 1 27.6953 24.3585 14.212
958 1 27.1083 23.6888 14.6467
959 1 26.2511 24.1123 14.7433
960 1 26.861 24.9072 14.5156
961 2 3.2061 3.64552 14.4868
962 2 4.09467 3.45946 14.1472
963 2 3.85702 4.46655 14.4122
964 2 3.32927 5.34681 14.4089
965 2 3.66421 5.07839 15.2619
966 2 3.69044 4.14703 15.4462
967 2 3.65877 3.60526 16.1578
968 2 4.33466 3.93074 16.7999
969 2 3.54617 4.23371 17.304
970 2 3.00625 3.43205 17.677
971 2 3.89342 3.56053 18.2368
972 2 3.33439 3.69652 19.0893
973 2 3.63509 4.03036 19.9915
974 2 2.70001 3.68871 19.9398
975 2 3.24952 3.47744 20.7416
976 2 2.92587 3.36496 21.7108
977 2 3.02213 3.23998 22.6147
978 2 3.80277 3.29529 23.2756
979 2 4.28602 3.09952 24.1629
980 2 4.70968 3.14537 25.1294
981 2 4.39253 2.87618 26.0972
982 2 3.47432 3.30964 26.3156
983 2 3.26084 2.71832 27.0505
984 2 2.87888 2.98329 28
985 2 2.31227 2.74772 27.2853
986 2 1.63545 3.18586 27.784
987 2 1.06131 2.6271 28.371
988 2 1.82228 2.94562 28.8648
989 2 2.27606 2.98293 29.794
990 2 1.89069 3.34649 30.6466
991 2 1.5928 2.54362 30.9856
992 2 1.52498 2.40849 31.955
993 2 8.38361 7.50742 15.8871
994 2 8.0161 6.96066 15.2372
995 2 7.60675 6.2225 15.7009
996 2 7.95741 5.68453 16.4426
997 2 6.93914 5.71833 16.3392
998 2 6.66081 5.0996 17.0107