ITEM: TIMESTEP
1000
ITEM: NUMBER OF ATOMS
720
ITEM: BOX BOUNDS pp pp pp
0.0000000000000000e+00 3.2000000000000000e+01
0.0000000000000000e+00 3.2000000000000000e+01
0.0000000000000000e+00 3.2000000000000000e+01
ITEM: ATOMS id type xu yu zu
1 1 0.74074 -2.89403 6.84422
2 1 1.56149 -3.26235 6.37015
3 1 2.09439 -2.69103 5.70827
4 1 1.43135 -1.9917 5.51816
5 1 1.95397 -1.2173 5.76533
6 1 1.20973 -0.722179 6.10385
7 1 1.75726 -0.0500772 5.56873
8 1 1.61234 0.824068 5.82981
9 1 0.729095 1.20561 6.16376
10 1 1.06485 0.272161 6.49817
11 1 0.142947 0.152232 6.27332
12 1 -0.381601 0.392789 7.04757
13 1 2.41069 -2.94203 4.70484
14 1 3.09881 -2.46394 5.2647
15 1 3.3003 -1.97468 6.11773
16 1 3.82615 -1.18194 5.80781
17 1 3.07664 -1.32446 5.14877
18 1 3.2085 -0.613267 4.586
19 1 2.9586 0.257385 4.91443
20 1 2.94921 0.237039 5.88924
21 1 2.75141 1.17749 6.14161
22 1 2.40326 0.884805 7.00294
23 1 2.53807 1.63034 7.65558
24 1 1.6883 1.76416 7.9417
25 1 8.85204 -0.485703 5.25269
26 1 8.99531 0.405981 5.20755
27 1 9.77721 0.791363 4.74611
28 1 10.0943 0.674267 5.71705
29 1 10.2756 -0.219109 5.90953
30 1 11.1197 -0.533586 6.396
31 1 11.9201 -1.04063 6.80014
32 1 12.478 -0.441808 6.41405
33 1 11.8074 0.215869 6.54494
34 1 11.9718 0.0918227 7.47208
35 1 12.5586 0.631009 7.94655
36 1 13.2118 0.227773 8.51371
37 1 18.5694 -0.75594 4.48681
38 1 17.7965 -0.478879 5.01005
39 1 17.9714 0.414727 4.89245
40 1 17.0767 0.906269 4.97865
41 1 16.4329 0.125059 5.14502
42 1 16.5738 -0.669108 5.59875
43 1 16.0595 -0.682329 6.46182
44 1 16.3384 -1.09539 7.30912
45 1 16.3405 -0.280673 7.81802
46 1 15.6541 -0.636945 8.43084
47 1 15.7764 0.420702 8.44826
48 1 16.1007 0.394536 9.3988
49 1 19.8592 -2.24897 5.43685
50 1 19.4896 -1.43731 4.95304
51 1 20.1797 -1.31785 5.71346
52 1 19.3826 -0.793448 5.98274
53 1 19.3509 0.155986 6.61354
54 1 20.2684 -0.0135894 6.11835
55 1 20.5194 -0.078926 7.06121
56 1 20.2104 0.816903 6.62464
57 1 19.5228 1.1679 7.28459
58 1 18.9342 1.92708 7.3624
59 1 18.8219 1.71701 6.43051
60 1 17.9807 1.46672 6.86155
61 1 27.8488 3.19518 4.11099
62 1 28.3738 3.24549 5.02073
63 1 27.5321 2.94756 5.59328
64 1 27.5916 1.96313 5.49271
65 1 26.6985 2.07953 5.97671
66 1 26.6625 1.91611 6.99187
67 1 27.1947 1.90603 7.74346
68 1 27.4019 2.76549 7.26385
69 1 27.7529 2.08034 6.59635
70 1 27.3657 1.30931 6.30494
71 1 26.7602 0.911129 5.58529
72 1 27.1488 0.814639 4.69466
73 1 -1.23664 3.21946 5.18535
74 1 -1.21861 4.04096 5.67285
75 1 -1.20443 4.46608 4.6885
76 1 -1.56788 5.15653 4.06412
77 1 -2.26326 4.54884 4.42974
78 1 -2.04221 5.28122 5.02162
79 1 -1.44989 6.01303 4.79193
80 1 -1.52234 6.71707 5.43498
81 1 -0.60899 6.58721 5.15264
82 1 -0.436966 5.91428 5.88043
83 1 -1.08124 5.433 6.35175
84 1 -0.776459 4.90798 5.58998
85 1 2.8233 6.28479 6.96631
86 1 3.57459 6.26723 6.37646
87 1 3.72286 6.49576 5.4429
88 1 4.3723 6.80193 6.06812
89 1 4.55421 7.62855 6.61554
90 1 3.59457 7.31559 6.54182
91 1 3.49533 6.91291 7.45047
92 1 2.73141 7.33679 7.69115
93 1 3.38698 7.72576 8.34414
94 1 4.185 7.60986 8.81318
95 1 3.51015 7.36228 9.49518
96 1 3.07087 7.73003 10.3199
97 1 10.0488 6.69872 3.9535
98 1 9.38304 7.13006 4.5338
99 1 9.93927 6.759 5.21342
100 1 10.1872 5.92994 4.87541
101 1 9.58175 5.23179 4.99386
102 1 9.13818 5.44836 5.83318
103 1 8.83453 6.08547 5.14276
104 1 8.25086 6.23344 5.8248
105 1 9.12681 6.49311 6.20683
106 1 9.06111 6.05618 7.10474
107 1 8.6195 6.93074 7.23358
108 1 8.70948 7.56947 8.0295
109 1 13.5681 5.21461 5.65485
110 1 13.6663 4.2318 5.7046
111 1 13.3366 3.65824 5.02674
112 1 13.6682 4.47943 4.66303
113 1 12.7886 4.92734 4.92197
114 1 12.848 5.87507 5.21513
115 1 13.2335 6.16781 4.37177
116 1 13.6474 6.67141 5.17948
117 1 14.3958 7.07621 5.75101
118 1 14.4524 7.81564 6.40736
119 1 15.0848 7.02056 6.51962
120 1 14.9147 6.48455 7.34206
121 1 19.2924 4.78804 3.55115
122 1 19.1017 4.8161 4.4288
123 1 19.8785 4.2561 4.66409
124 1 19.9124 4.4893 5.59867
125 1 19.7414 4.45275 6.55829
126 1 19.3027 5.16972 6.10637
127 1 19.8621 5.50949 5.49583
128 1 19.3641 6.23783 5.27083
129 1 18.8555 6.44006 6.00516
130 1 19.5922 6.92765 6.30091
131 1 20.0178 6.17866 6.60249
132 1 20.6938 5.62934 6.83272
133 1 27.466 6.81124 2.80419
134 1 27.9709 6.25776 3.41579
135 1 27.459 6.03028 4.1319
136 1 27.1219 5.38343 4.70196
137 1 27.1293 5.0837 5.61171
138 1 27.5177 5.88892 5.7367
139 1 27.0357 5.73124 6.63684
140 1 26.2312 5.27569 6.65752
141 1 25.8063 5.25473 5.78098
142 1 25.105 5.8327 5.49179
143 1 24.2953 6.27639 5.93329
144 1 24.0819 5.2733 5.88118
145 1 2.1276 13.6011 7.11003
146 1 2.07858 13.7447 6.19976
147 1 1.115 14.1177 5.82742
148 1 0.735877 14.0452 6.74122
149 1 1.2068 13.3806 7.30001
150 1 0.463582 13.1319 6.72327
151 1 0.057348 13.6491 6.01871
152 1 -0.550751 13.2464 6.72378
153 1 -0.41132 13.0022 7.63779
154 1 -1.28625 13.3172 7.73714
155 1 -1.1848 14.263 7.74667
156 1 -1.06576 14.4802 8.67457
157 1 6.23929 12.3773 5.57958
158 1 5.24506 12.2768 5.79036
159 1 4.3668 12.2821 6.11847
160 1 4.25221 11.6131 6.91048
161 1 4.91137 12.2092 7.35423
162 1 4.42217 13.0358 7.54562
163 1 5.10519 13.5613 7.90237
164 1 4.62532 14.3146 7.444
165 1 5.22387 15.0828 7.28741
166 1 6.00611 15.7372 7.09373
167 1 6.01606 15.3443 6.16198
168 1 7.07989 15.0751 6.33878
169 1 9.08173 12.8566 5.5555
170 1 9.89484 13.1806 5.99604
171 1 10.0266 13.0312 6.89202
172 1 10.4854 12.4399 7.50627
173 1 9.76182 11.6932 7.39306
174 1 9.16048 12.3298 7.13341
175 1 8.45282 11.9149 7.53714
176 1 7.79806 11.468 7.04903
177 1 8.31539 11.6398 6.29683
178 1 9.15876 11.1127 6.388
179 1 9.69764 11.6967 5.77264
180 1 10.4312 11.3429 6.46398
181 1 15.6693 13.005 4.28433
182 1 15.5915 12.0789 4.67976
183 1 15.6308 12.4922 5.51282
184 1 15.5084 11.8004 6.21565
185 1 14.5633 11.6628 6.13988
186 1 14.7101 12.0815 6.98668
187 1 14.6614 12.9072 6.51958
188 1 14.1661 13.542 6.9097
189 1 14.7248 12.9525 7.55317
190 1 14.2104 12.2042 8.14004
191 1 13.4285 11.7941 8.66918
192 1 14.3738 11.8265 9.1841
193 1 22.0023 14.5736 4.09019
194 1 21.8051 14.4139 5.08247
195 1 21.2188 13.8648 4.51137
196 1 21.2234 12.9277 4.6638
197 1 20.653 12.314 5.13945
198 1 20.9185 12.2916 6.06894
199 1 21.7442 12.6418 5.73461
200 1 21.7175 13.095 6.72408
201 1 22.0454 13.9221 6.29224
202 1 21.2587 14.0944 6.82638
203 1 21.5066 13.5101 7.67988
204 1 20.7172 12.9195 7.45563
205 1 27.6465 11.1728 5.9343
206 1 26.8358 11.4828 6.5056
207 1 26.0356 10.872 6.25529
208 1 25.7462 11.8542 5.97065
209 1 25.4548 11.5201 6.74667
210 1 25.8667 11.6186 7.56073
211 1 24.8946 11.7182 7.56196
212 1 24.104 12.0718 7.84619
213 1 23.2814 12.5115 8.26514
214 1 23.9463 12.5109 8.95778
215 1 24.6506 13.1886 8.78708
216 1 24.9138 12.3269 8.3451
217 1 0.289813 17.5875 6.53497
218 1 -0.0414017 18.3578 6.09527
219 1 0.743791 18.7687 6.38754
220 1 0.505129 19.6513 6.83098
221 1 0.0801227 20.3471 6.29396
222 1 -0.856778 20.3119 6.07474
223 1 -1.22735 19.4354 6.3841
224 1 -1.34592 18.5187 6.58989
225 1 -1.01027 17.5721 6.762
226 1 -0.384522 18.1221 7.24045
227 1 0.201529 18.7812 7.82997
228 1 -0.884581 18.946 8.12881
229 1 6.89824 20.2776 6.77025
230 1 6.1093 20.1153 7.32379
231 1 5.77527 19.6768 6.57021
232 1 5.65164 18.9486 6.05884
233 1 5.50019 18.5475 6.92091
234 1 4.81172 19.2837 6.6899
235 1 4.75282 20.0016 7.32577
236 1 4.16724 20.485 7.97111
237 1 4.78604 21.1123 7.97304
238 1 4.78786 21.2073 7.05632
239 1 4.34687 21.9866 6.79989
240 1 3.75701 21.1265 6.48953
241 1 13.3383 18.4219 6.73892
242 1 13.4092 19.2974 6.88842
243 1 13.3683 19.0499 7.93081
244 1 13.6742 18.5948 8.76335
245 1 12.7125 18.69 8.64369
246 1 12.2457 19.1794 7.93926
247 1 11.7249 18.6755 8.54528
248 1 12.0176 17.8278 8.82329
249 1 11.7959 16.8641 8.58757
250 1 11.2697 17.5653 8.32188
251 1 11.6898 17.162 7.50244
252 1 12.6092 16.9674 7.53963
253 1 12.8345 17.5068 5.17393
254 1 13.4378 16.8493 5.58867
255 1 14.3045 17.2762 5.54201
256 1 13.9676 17.5208 6.37303
257 1 14.2677 16.594 6.23587
258 1 13.8634 15.7177 6.42485
259 1 13.209 15.9246 7.05313
260 1 12.7556 16.0009 7.91679
261 1 12.9744 16.7739 8.40787
262 1 13.7268 16.7646 9.05234
263 1 13.1005 16.0533 9.14907
264 1 13.9035 15.4742 9.2141
265 1 19.1264 18.0061 4.73067
266 1 19.3714 18.3582 5.59742
267 1 20.2845 18.5723 5.60699
268 1 20.8878 19.1724 5.81502
269 1 21.1321 18.9906 6.68419
270 1 20.1667 19.179 6.74198
271 1 20.4334 18.1469 6.71543
272 1 20.1883 17.5929 7.52038
273 1 20.8767 18.1067 8.02341
274 1 21.8113 18.1111 8.27611
275 1 22.0367 17.3406 7.75612
276 1 22.6349 17.0636 7.04713
277 1 23.4878 19.6976 5.23036
278 1 23.7282 18.8864 4.90754
279 1 23.4517 18.1116 5.35512
280 1 23.9347 17.304 5.44162
281 1 24.494 18.0587 5.28528
282 1 25.1509 17.5535 4.69771
283 1 25.4271 18.428 5.10893
284 1 26.2613 18.9187 5.05686
285 1 26.3034 18.4115 5.86536
286 1 26.1332 19.0049 6.65262
287 1 25.3699 18.351 6.62161
288 1 25.3814 18.95 7.37169
289 1 -0.371256 24.0321 4.18305
290 1 -0.0227637 24.5609 4.84243
291 1 -0.608879 25.3345 4.79124
292 1 0.171901 25.833 4.22768
293 1 0.419041 26.1036 5.1348
294 1 0.49328 27.067 5.04713
295 1 0.595994 26.8136 4.01708
296 1 -0.365751 26.6887 3.63113
297 1 -0.76235 26.9385 4.58393
298 1 -0.58501 26.9486 5.53779
299 1 -1.60475 27.1426 5.49825
300 1 -1.77759 27.0551 6.51847
301 1 3.56763 26.9416 7.80095
302 1 3.66428 26.4945 6.97176
303 1 3.60245 25.7367 6.39347
304 1 3.49172 24.7402 6.48556
305 1 4.22167 24.1134 6.38835
306 1 4.92086 24.77 6.08437
307 1 5.25256 24.2093 6.85105
308 1 4.90484 23.3425 6.85833
309 1 4.77045 23.0549 7.78424
310 1 5.49794 22.3665 7.98953
311 1 6.19633 22.4414 8.77381
312 1 7.13201 22.1442 8.83588
313 1 14.1568 23.7265 5.64018
314 1 13.2932 24.0498 5.34081
315 1 12.4296 24.0268 5.63279
316 1 12.7541 24.1251 6.45135
317 1 12.3252 24.9038 6.43606
318 1 11.8504 25.0284 5.63194
319 1 11.5947 25.6771 6.32398
320 1 11.1384 24.8128 6.74926
321 1 11.0026 25.3708 7.55615
322 1 11.3226 25.844 8.29808
323 1 11.1188 26.0497 9.34857
324 1 12.0102 25.6056 9.51395
325 1 15.6297 26.4586 4.55178
326 1 15.3183 25.7037 5.15795
327 1 14.5901 25.8594 4.46878
328 1 14.3302 25.5276 5.39768
329 1 13.5076 25.309 4.8567
330 1 13.4705 25.1612 5.77097
331 1 13.3795 26.113 5.45524
332 1 14.0109 26.4978 6.09848
333 1 13.904 25.7373 6.67816
334 1 14.7375 25.5485 6.30698
335 1 14.7509 24.7138 6.78668
336 1 13.9098 24.4043 7.19576
337 1 19.0548 21.9959 5.03396
338 1 18.9833 21.9338 3.93662
339 1 18.6462 22.8727 4.36183
340 1 19.3363 23.56 4.26884
341 1 20.2262 23.0376 4.24197
342 1 20.8154 23.3729 4.87611
343 1 20.0016 23.3636 5.46126
344 1 19.1728 23.0889 5.58847
345 1 18.2077 22.9192 5.85492
346 1 18.7756 23.1966 6.58145
347 1 18.5759 24.0983 6.57326
348 1 17.9348 23.9622 5.68767
349 1 25.7134 26.8764 3.16056
350 1 25.6546 26.2073 3.85733
351 1 26.5294 25.6914 3.79656
352 1 26.2542 25.7129 4.70858
353 1 26.5214 26.1126 5.56465
354 1 26.1389 25.6504 6.19755
355 1 25.8767 24.8088 5.65636
356 1 25.2006 25.3299 6.06423
357 1 25.2957 25.2628 7.03709
358 1 25.039 25.7667 7.82206
359 1 25.2425 26.5622 7.28928
360 1 24.3574 26.5527 7.55051
361 2 1.10791 5.71286 23.0265
362 2 1.23189 4.89012 22.5913
363 2 1.69851 5.62976 22.109
364 2 2.59054 5.2967 22.0864
365 2 2.41765 4.34244 22.3742
366 2 2.03617 4.27587 23.3663
367 2 2.39453 4.74119 24.1637
368 2 2.4228 4.34866 25.057
369 2 2.91366 3.63988 25.571
370 2 2.93115 4.5698 26.0098
371 2 3.8481 4.29413 25.7269
372 2 4.44829 3.69341 25.2397
373 2 7.84968 3.11162 23.6135
374 2 8.72367 3.6739 23.8098
375 2 8.90388 2.98462 23.2582
376 2 9.75473 3.19839 23.4494
377 2 10.6994 3.3473 23.6531
378 2 11.2621 3.43909 22.7639
379 2 11.2854 4.38778 22.9356
380 2 10.4979 4.70953 22.5867
381 2 9.61047 4.47121 22.8252
382 2 8.75513 4.32179 22.4438
383 2 8.07014 4.21856 23.1524
384 2 7.26608 4.20482 23.7695
385 2 13.7346 3.44126 26.8086
386 2 13.0044 3.47445 26.1477
387 2 13.3345 2.57947 26.2856
388 2 13.7661 1.85213 25.9915
389 2 14.4181 1.25992 25.4538
390 2 14.1196 1.95862 24.7908
391 2 13.6217 2.73335 24.5629
392 2 12.97 2.31306 25.1234
393 2 12.5469 1.43631 25.2207
394 2 12.9962 0.539634 25.2581
395 2 13.5157 0.617128 26.04
396 2 12.9202 1.38433 26.258
397 2 17.217 1.23696 23.2579
398 2 16.6117 0.951643 22.5963
399 2 17.5723 1.21758 22.1517
400 2 18.2954 1.52486 21.5643
401 2 18.6047 1.61614 22.5777
402 2 18.072 2.42012 22.4099
403 2 17.7831 3.1643 22.9226
404 2 16.8453 3.54413 23.1444
405 2 16.9581 2.59669 22.8955
406 2 17.0957 2.68713 23.824
407 2 16.8138 3.35883 24.4391
408 2 17.7877 3.30504 24.3838
409 2 21.6711 2.79753 22.3929
410 2 21.7334 3.50786 21.7396
411 2 21.4745 4.34883 21.1767
412 2 21.4473 5.27377 21.0623
413 2 21.9221 5.15857 21.9947
414 2 21.7276 4.46017 22.666
415 2 22.5492 4.90855 22.756
416 2 23.2373 4.11091 22.5333
417 2 23.5418 4.13923 23.5575
418 2 22.6445 4.20272 24.0286
419 2 22.1049 3.36156 23.9955
420 2 22.0814 2.49273 24.5283
421 2 26.5673 2.95878 23.3245
422 2 26.3247 2.03104 23.5235
423 2 26.2417 1.78391 24.4369
424 2 27.1235 1.4216 24.671
425 2 27.4128 1.39602 23.7231
426 2 28.3239 1.17125 24.1044
427 2 28.5178 0.65392 24.9016
428 2 28.4791 1.56422 25.1091
429 2 28.1831 2.5089 25.0852
430 2 27.8506 3.33411 24.7308
431 2 26.9653 3.11817 25.0165
432 2 26.7516 2.60059 24.2827
433 2 2.99446 7.82984 24.4211
434 2 2.09823 7.88192 24.8337
435 2 1.30833 8.55096 24.9819
436 2 1.34637 9.21747 25.6045
437 2 0.856879 8.66181 26.1101
438 2 0.385497 9.50135 25.9338
439 2 0.422025 10.0568 25.1046
440 2 1.09613 10.7046 25.2111
441 2 0.982021 11.6223 24.5913
442 2 1.94574 11.5489 24.6546
443 2 2.73645 11.2018 24.1661
444 2 2.85378 10.3334 23.7969
445 2 8.53761 11.5846 23.7031
446 2 9.20496 11.3492 24.3876
447 2 9.4208 10.4514 24.5347
448 2 9.47432 10.4538 25.4657
449 2 9.75012 9.57232 25.2937
450 2 9.09169 8.91198 25.3304
451 2 8.2124 8.69522 25.8581
452 2 7.34106 8.44861 26.3364
453 2 6.93782 9.08406 26.8594
454 2 7.69298 9.59691 27.3732
455 2 8.00587 10.403 27.1244
456 2 7.51472 11.2201 26.7309
457 2 11.2069 7.57347 22.1931
458 2 11.0057 8.52182 22.4469
459 2 11.4774 8.19245 23.1618
460 2 11.2614 8.88558 23.7799
461 2 11.3662 9.84397 23.8693
462 2 12.2447 9.90991 23.5264
463 2 12.1162 10.8888 23.3652
464 2 12.9847 10.5542 22.9685
465 2 13.8395 10.191 22.9321
466 2 14.7074 10.3868 23.3528
467 2 14.9182 9.60235 23.8982
468 2 15.3436 9.80312 23.0274
469 2 16.6251 10.1856 22.5195
470 2 16.4017 9.72676 21.7419
471 2 16.4193 8.91447 21.2791
472 2 16.7621 8.42325 22.1423
473 2 17.5944 8.13029 21.7453
474 2 16.8824 7.50546 22.0054
475 2 17.4001 7.91357 22.7228
476 2 17.4191 8.91079 22.6277
477 2 16.8127 8.71087 23.4308
478 2 17.0569 8.86289 24.4182
479 2 16.1313 9.01491 24.7628
480 2 16.0271 9.24503 23.7276
481 2 23.3838 11.8573 20.649
482 2 22.4142 12.0418 20.3336
483 2 22.0818 11.8237 21.2071
484 2 21.9743 11.0113 20.7521
485 2 22.3071 10.8108 21.6352
486 2 23.1714 11.0595 21.6195
487 2 23.195 10.311 21.0391
488 2 23.1385 9.4843 21.6101
489 2 22.6155 9.44534 22.4161
490 2 22.7831 8.59627 22.7888
491 2 22.27 7.82348 22.9604
492 2 21.4338 7.14342 22.8485
493 2 29.2813 10.321 22.4631
494 2 29.0014 10.6594 21.5589
495 2 28.0985 10.5308 21.8763
496 2 27.2773 10.9367 22.2827
497 2 27.2169 9.93582 22.5729
498 2 27.3155 9.60516 23.4689
499 2 27.7426 8.73889 23.3584
500 2 27.8782 9.00145 24.3132
501 2 28.472 9.71667 24.4052
502 2 28.6138 9.98212 23.5302
503 2 28.2646 9.71771 22.636
504 2 28.5912 8.8376 22.663
505 2 4.07738 15.529 24.482
506 2 3.7446 14.5857 24.4473
507 2 3.91699 14.8862 25.3668
508 2 2.95533 15.028 25.3453
509 2 2.98569 14.0818 25.4056
510 2 2.11586 13.8774 25.3851
511 2 1.75821 13.3211 26.016
512 2 1.35102 12.5927 25.4327
513 2 1.45252 13.3195 24.8276
514 2 0.569195 13.2872 24.6317
515 2 0.24265 12.7472 25.2503
516 2 -0.631796 12.4557 25.5099
517 2 7.45448 15.348 22.5126
518 2 6.72385 15.8066 22.076
519 2 7.31598 15.5135 21.405
520 2 6.90423 14.9814 20.7212
521 2 6.07413 14.7132 21.2192
522 2 5.21073 14.5273 21.4618
523 2 5.77341 14.9928 22.2073
524 2 6.37868 14.2729 22.0327
525 2 6.83548 13.4894 21.9893
526 2 7.21607 14.2541 22.6768
527 2 7.92258 14.3008 23.3239
528 2 7.76152 15.1606 23.5172
529 2 12.1763 16.3464 22.5516
530 2 12.2325 16.7181 23.3673
531 2 12.8664 16.0089 23.0543
532 2 12.3408 15.3226 23.5388
533 2 11.8827 15.7048 24.326
534 2 12.3784 16.4715 24.4037
535 2 12.7914 16.2225 25.2159
536 2 12.9959 15.715 26.1154
537 2 13.3467 14.8396 26.1284
538 2 13.6697 14.7579 25.1787
539 2 13.0966 15.3318 24.6565
540 2 13.1121 14.54 24.1139
541 2 15.5588 15.3462 24.1151
542 2 15.6175 16.2814 23.9739
543 2 16.3965 16.6731 23.4782
544 2 17.2746 16.82 23.8548
545 2 17.6564 17.1062 24.705
546 2 17.0102 16.3727 24.7537
547 2 16.7544 15.5979 24.3908
548 2 16.1479 14.8453 24.818
549 2 16.7724 14.8328 25.5004
550 2 17.5075 15.2404 25.0835
551 2 17.5208 14.965 26.0676
552 2 18.2327 14.6083 26.6262
553 2 23.9076 15.5339 24.6763
554 2 22.958 15.1791 24.6301
555 2 22.9062 16.1507 24.3501
556 2 23.0211 15.4325 23.615
557 2 22.2 14.8651 23.9161
558 2 21.4587 14.2891 24.298
559 2 21.9621 13.5673 24.7006
560 2 21.9157 13.7155 25.6261
561 2 22.724 13.7623 26.1514
562 2 23.659 13.8403 25.7813
563 2 23.7028 12.9118 26.0073
564 2 22.9573 12.2938 26.2648
565 2 29.0485 13.5343 21.7959
566 2 28.9594 13.3951 22.72
567 2 27.9609 13.6465 22.6359
568 2 28.0138 14.6643 22.6271
569 2 28.3316 15.5174 22.3455
570 2 28.4341 15.3344 21.3404
571 2 28.8622 14.629 21.8533
572 2 29.6232 15.1813 22.0151
573 2 30.1678 15.3357 21.1264
574 2 29.8811 14.3541 21.4933
575 2 29.627 14.1235 22.3718
576 2 29.8515 14.7021 23.0707
577 2 1.37321 20.1462 20.4345
578 2 1.82956 21.0623 20.5031
579 2 2.15504 21.6771 21.1917
580 2 3.04704 22.2267 20.7823
581 2 3.93574 22.0949 21.2645
582 2 3.39067 21.4709 21.8133
583 2 4.1434 20.7157 21.8411
584 2 4.8786 20.8936 22.4534
585 2 4.88772 20.2219 23.0644
586 2 4.58374 20.021 23.9857
587 2 4.58249 20.4634 24.8038
588 2 4.50175 19.5826 25.3412
589 2 7.37392 19.312 20.5581
590 2 6.98665 20.1737 20.3487
591 2 7.31135 20.9736 20.6864
592 2 7.96354 20.517 21.0745
593 2 8.13367 21.4121 20.9092
594 2 8.72466 21.4524 20.1854
595 2 9.42453 21.146 20.8523
596 2 9.94499 20.381 20.7931
597 2 10.1711 20.1014 21.7875
598 2 9.46235 19.5236 22.0221
599 2 8.71524 20.0666 22.4567
600 2 8.90942 20.6446 23.2123
601 2 11.3117 21.0036 23.3116
602 2 12.2531 20.8688 23.1029
603 2 11.9642 21.7273 22.7773
604 2 12.8345 22.0428 22.5
605 2 12.6509 21.9846 23.487
606 2 12.0844 21.9909 24.2235
607 2 11.6896 22.5133 24.9446
608 2 12.5787 22.8638 24.8836
609 2 13.0935 22.0311 24.9174
610 2 12.4854 21.308 25.2162
611 2 11.7109 20.82 25.4192
612 2 11.3065 19.9674 25.2908
613 2 16.9565 22.525 21.9557
614 2 17.422 21.8841 21.4862
615 2 18.0046 21.2894 21.8895
616 2 17.1741 21.3402 22.3059
617 2 16.3409 20.985 22.5226
618 2 15.8219 21.6844 22.9483
619 2 16.6268 22.0217 23.3385
620 2 16.7218 21.4015 24.0437
621 2 17.397 21.0151 24.6184
622 2 18.0937 21.5945 24.9689
623 2 17.9193 21.5128 25.9291
624 2 17.4504 21.6866 26.6603
625 2 22.5391 21.1127 20.9557
626 2 22.7602 20.1289 20.8603
627 2 23.5092 20.4656 21.3962
628 2 24.3414 20.2514 21.0295
629 2 24.6284 19.5157 21.6287
630 2 24.5322 19.688 22.5296
631 2 25.0078 20.5084 22.284
632 2 24.0664 20.8866 22.107
633 2 24.1425 21.5768 22.6817
634 2 23.3191 20.981 23.0882
635 2 22.7946 20.471 22.4425
636 2 23.4429 19.7962 22.2722
637 2 29.2282 22.8972 25.0187
638 2 30.2534 22.7855 25.0925
639 2 29.9276 22.9963 24.1495
640 2 29.5737 22.1226 24.461
641 2 29.2918 21.9719 25.3515
642 2 28.8307 21.1814 25.2552
643 2 29.2583 20.4323 25.6553
644 2 28.8769 20.0241 26.4833
645 2 28.7185 20.6054 27.3255
646 2 28.2564 20.4918 28.1062
647 2 28.3255 19.612 27.8177
648 2 29.1813 19.8221 28.0441
649 2 3.61697 29.7684 22.468
650 2 2.79509 29.4012 22.7907
651 2 3.34683 28.6186 23.2417
652 2 4.05761 28.1905 23.727
653 2 4.08166 27.2359 23.927
654 2 3.63113 26.6735 24.51
655 2 2.60655 26.972 24.6647
656 2 2.20771 27.0429 23.7455
657 2 1.97321 27.4659 22.9277
658 2 1.46568 26.6337 23.0129
659 2 1.56141 25.8377 23.5383
660 2 1.91488 25.3272 22.8117
661 2 6.84521 27.0241 22.4943
662 2 7.45414 27.3634 23.1459
663 2 7.85825 28.1654 22.6984
664 2 8.50078 27.7618 23.4854
665 2 9.23404 28.2246 23.8913
666 2 8.80991 29.1616 23.7147
667 2 7.91992 28.9794 23.4278
668 2 7.80874 28.3811 24.1444
669 2 7.09222 27.7679 24.499
670 2 7.79035 27.4855 25.0675
671 2 8.15045 27.0684 24.2116
672 2 9.18681 26.8759 24.1268
673 2 11.3466 28.0997 22.8662
674 2 12.0179 27.3926 22.8402
675 2 12.5764 27.5774 23.6474
676 2 11.8489 28.0222 23.9497
677 2 11.1616 28.1035 24.6993
678 2 11.0133 27.2542 25.1187
679 2 11.728 26.4641 25.278
680 2 11.2552 26.0258 24.6391
681 2 11.1322 25.0463 24.9982
682 2 10.6038 24.2322 24.7573
683 2 9.80649 23.6618 25.0513
684 2 10.5978 23.1366 25.1264
685 2 19.1294 26.0961 24.1862
686 2 18.7937 25.2606 23.9359
687 2 19.4699 24.5487 23.7784
688 2 19.7768 25.0357 22.9458
689 2 19.0348 24.9652 22.1761
690 2 17.9383 24.9362 22.407
691 2 17.0291 25.0044 22.7809
692 2 17.3661 24.4394 23.5839
693 2 17.9055 25.0876 24.0371
694 2 17.9411 25.8835 24.6368
695 2 18.082 25.6837 25.6279
696 2 18.8509 26.3697 25.8602
697 2 22.8894 27.6181 20.5217
698 2 23.9435 27.9013 20.409
699 2 23.6698 27.9111 21.3819
700 2 23.1155 27.4136 21.9577
701 2 22.4237 28.0386 21.558
702 2 21.7268 27.9362 22.1793
703 2 21.4696 28.6225 21.5352
704 2 22.0688 28.8076 22.2142
705 2 22.8933 28.4785 22.7251
706 2 23.647 27.8681 22.8036
707 2 24.5964 27.5364 22.9378
708 2 24.5239 28.479 23.4388
709 2 26.9557 26.187 24.2861
710 2 27.7364 26.1466 23.7214
711 2 27.5298 27.0389 24.1573
712 2 26.9303 27.2491 24.9036
713 2 27.5979 26.6297 25.0351
714 2 28.3524 26.1387 24.5954
715 2 29.124 26.7158 24.9347
716 2 28.4918 27.2811 24.623
717 2 29.1139 27.7664 25.1373
718 2 28.9795 27.246 25.9468
719 2 29.0257 28.1537 26.1419
720 2 29.302 29.098 25.802
ITEM: TIMESTEP
2000
ITEM: NUMBER OF ATOMS
720
ITEM: BOX BOUNDS pp pp pp
0.0000000000000000e+00 3.2000000000000000e+01
0.0000000000000000e+00 3.2000000000000000e+01
0.0000000000000000e+00 3.2000000000000000e+01
ITEM: ATOMS id type xu yu zu
1 1 0.656063 -1.08084 6.73745
2 1 -0.298827 -1.21095 6.76597
3 1 -0.338783 -0.205544 6.86055
4 1 -0.352447 0.634025 6.27041
5 1 0.0419214 -0.150269 5.73674
6 1 0.418571 -0.161924 4.84897
7 1 -0.48246 0.36232 4.60924
8 1 -1.52687 0.42568 4.80292
9 1 -1.29988 -0.33456 5.3506
10 1 -1.90729 -0.890785 5.72893
11 1 -2.18984 -0.763214 6.57779
12 1 -2.32569 0.199455 6.49594
13 1 1.79973 0.129673 4.91746
14 1 2.33766 -0.551575 5.23184
15 1 1.96613 -0.601414 6.03405
16 1 1.80546 0.28238 6.42943
17 1 0.808455 0.169638 6.3632
18 1 0.944169 0.754228 7.04554
19 1 0.858742 1.31683 6.23918
20 1 0.526867 1.87989 6.94611
21 1 0.0764265 2.48215 6.31624
22 1 0.658289 3.18242 6.02317
23 1 0.99116 2.2379 5.8852
24 1 1.7697 2.46492 5.36373
25 1 11.0163 -0.303774 8.68036
26 1 10.644 -0.463011 9.50907
27 1 10.0677 0.122087 9.15125
28 1 10.4579 0.517097 9.92159
29 1 10.159 0.45633 10.8619
30 1 10.7081 1.145 11.0039
31 1 11.2428 1.07272 10.22
32 1 11.3924 0.475755 9.52189
33 1 11.3894 -0.365075 10.2321
34 1 11.8769 -0.705345 10.9958
35 1 12.4889 -0.0521077 10.8834
36 1 12.3923 0.542952 10.0803
37 1 16.1129 -0.242862 2.65997
38 1 16.3074 -0.393907 3.53851
39 1 16.6545 -0.312875 4.46159
40 1 17.6528 -0.440951 4.53485
41 1 18.0771 -1.09334 5.24122
42 1 18.0421 -1.22221 6.16775
43 1 18.8579 -0.826546 6.30693
44 1 18.1619 -0.473815 6.95416
45 1 18.3537 -1.24741 7.57306
46 1 19.0424 -1.99926 7.61466
47 1 19.4908 -2.75468 7.93377
48 1 19.1803 -3.10265 7.11795
49 1 20.0495 -1.76988 4.94887
50 1 20.249 -0.846425 5.10056
51 1 20.397 -0.101681 5.71571
52 1 21.3636 -0.158751 5.91002
53 1 21.2988 -0.22491 4.82185
54 1 20.9117 0.0179049 3.91559
55 1 20.279 0.72418 3.89535
56 1 19.9104 0.379225 4.75818
57 1 19.8053 -0.285147 4.14801
58 1 20.5418 -0.873375 3.76129
59 1 20.2462 -1.80123 3.89881
60 1 21.1693 -2.25537 4.17214
61 1 25.5035 2.86676 8.33308
62 1 25.7982 2.41113 7.58293
63 1 26.4813 2.50333 6.83839
64 1 27.1723 2.06167 7.31549
65 1 26.7422 2.17873 8.17638
66 1 26.2329 1.32069 8.16979
67 1 26.8157 0.826172 8.65732
68 1 27.4453 1.12185 7.93362
69 1 27.6296 1.63237 8.73915
70 1 27.2686 1.44109 9.57188
71 1 28.0579 0.952395 9.62963
72 1 28.2318 1.06194 10.6348
73 1 2.06331 6.10526 0.45912
74 1 2.67245 6.81798 0.926116
75 1 2.47143 6.96728 1.87356
76 1 1.54391 7.0657 2.02476
77 1 2.1283 7.71194 2.59775
78 1 2.17577 7.39736 3.51361
79 1 2.31353 6.93763 4.39055
80 1 1.89845 7.77519 4.59725
81 1 1.42478 8.47468 4.11467
82 1 1.3249 8.23834 3.18505
83 1 0.575383 7.94255 3.78345
84 1 0.692182 7.04633 3.74882
85 1 2.87261 9.0172 8.02994
86 1 2.82012 9.75483 8.77323
87 1 3.50135 9.73298 9.49951
88 1 3.91106 8.96504 10.1002
89 1 3.23718 8.19655 10.0145
90 1 3.56626 7.47795 9.43983
91 1 2.62706 7.54214 9.13013
92 1 1.94602 7.8176 9.81013
93 1 1.04682 8.19456 9.86579
94 1 1.30954 9.05102 10.2719
95 1 1.8747 9.73251 9.91082
96 1 1.52739 9.14458 9.19395
97 1 8.18739 6.54672 4.63729
98 1 8.65185 7.00149 5.40145
99 1 7.76651 7.07084 5.66914
100 1 8.13371 6.14845 5.55365
101 1 7.17363 5.99939 5.78561
102 1 7.59297 5.71961 6.63204
103 1 7.9451 6.6322 6.54461
104 1 8.84002 7.07154 6.54412
105 1 9.65627 6.74611 6.13615
106 1 9.63321 5.8755 5.69662
107 1 9.33374 5.68698 4.73561
108 1 10.0884 6.26645 4.94656
109 1 10.8667 6.92937 1.07354
110 1 10.2767 6.79434 1.81046
111 1 10.8907 6.97759 2.53151
112 1 11.8056 6.98253 2.72068
113 1 11.3288 7.03511 3.54474
114 1 11.3889 7.73618 4.26345
115 1 11.9647 8.34449 3.7411
116 1 12.1764 8.59606 4.66423
117 1 12.6735 7.79733 4.2763
118 1 12.1709 6.94233 4.33994
119 1 13.0116 6.94099 3.84864
120 1 12.9759 5.9461 3.55983
121 1 21.2136 4.22223 6.47867
122 1 21.2341 3.30548 6.57575
123 1 20.5545 2.75863 6.92103
124 1 20.302 3.26168 6.19746
125 1 20.2995 4.16254 5.99475
126 1 19.7151 4.86424 6.34955
127 1 18.983 5.38232 6.07172
128 1 18.1311 5.92641 6.66891
129 1 18.4007 6.53889 7.30862
130 1 18.2676 7.32818 6.76591
131 1 18.7892 7.6552 5.9395
132 1 19.3081 7.03633 6.53845
133 1 28.2223 6.86213 4.01016
134 1 28.2612 7.07752 5.01834
135 1 27.9115 7.00905 5.90896
136 1 28.121 7.0645 6.87335
137 1 27.7923 6.12846 7.0766
138 1 27.3754 6.26779 6.17937
139 1 26.9143 7.21668 6.11613
140 1 27.0223 7.02153 7.02163
141 1 26.867 6.21328 7.39112
142 1 26.9662 6.05001 8.31592
143 1 26.28 5.43468 8.63593
144 1 26.5275 5.38573 9.55101
145 1 2.82317 12.8158 7.356
146 1 2.85243 12.4068 6.52807
147 1 1.93823 12.7213 6.80969
148 1 1.80513 12.8354 7.722
149 1 1.38526 12.1365 8.16022
150 1 1.34432 11.8898 7.18109
151 1 0.681007 11.7307 6.52247
152 1 0.0246421 12.2724 6.92981
153 1 -0.754762 11.7558 7.04485
154 1 -1.47299 12.064 7.51254
155 1 -0.910191 12.1154 8.40249
156 1 -0.00787485 12.437 8.09622
157 1 4.61468 11.8409 6.41232
158 1 5.11028 12.3343 5.89574
159 1 5.45651 12.8948 6.5705
160 1 5.99328 13.1738 7.32272
161 1 5.50417 13.8898 7.5458
162 1 5.45678 14.3535 6.70814
163 1 6.34446 14.2425 7.06366
164 1 6.96009 13.6065 6.55024
165 1 7.46579 13.572 7.31651
166 1 7.08359 12.875 7.78441
167 1 6.61763 13.5616 8.21941
168 1 6.4298 14.5214 8.45324
169 1 6.50197 11.7171 5.20797
170 1 6.21844 11.8905 6.20571
171 1 6.69148 12.3768 6.89416
172 1 7.26852 11.7221 6.39872
173 1 6.94986 11.3186 7.17362
174 1 8.00854 11.3035 6.94791
175 1 8.74829 11.8831 6.71098
176 1 9.48808 12.3413 6.43518
177 1 8.71922 13.0222 6.34811
178 1 7.97817 12.7149 6.7731
179 1 7.85504 12.9259 5.78342
180 1 7.9658 13.9779 5.7811
181 1 11.7024 13.4695 7.92016
182 1 12.1416 13.393 7.12104
183 1 12.7403 12.7855 7.48277
184 1 13.0173 13.5355 8.09601
185 1 13.8682 13.3164 8.51334
186 1 13.7181 12.629 7.90024
187 1 14.6812 12.3974 8.17142
188 1 15.0613 11.4639 8.16368
189 1 14.2365 11.3101 7.79867
190 1 14.1594 10.6905 8.51845
191 1 14.5636 10.0347 9.00361
192 1 14.963 9.32701 8.66615
193 1 21.0112 10.7141 6.18029
194 1 22.0283 11.044 6.14928
195 1 22.4907 11.6812 6.75553
196 1 22.7207 12.1898 5.9691
197 1 23.6654 12.1255 5.86879
198 1 23.406 11.4392 6.525
199 1 23.4983 11.5776 7.39682
200 1 24.2555 12.1914 7.10586
201 1 24.5965 12.6897 7.9974
202 1 24.2909 13.2583 7.1571
203 1 24.9681 12.668 6.78465
204 1 25.3779 13.4418 7.22022
205 1 26.3052 13.5129 6.67173
206 1 26.8213 14.1077 7.17426
207 1 27.6254 13.4503 7.53022
208 1 27.571 12.5348 7.91908
209 1 28.0026 12.5777 8.84643
210 1 27.479 13.3869 8.96451
211 1 26.6562 12.9591 8.69469
212 1 26.4086 13.014 7.81003
213 1 26.0561 12.2083 8.29006
214 1 26.1999 12.072 9.15736
215 1 26.4189 11.6695 10.0231
216 1 26.3784 10.6752 10.2885
217 1 2.58729 19.0105 6.71751
218 1 1.60912 19.0668 6.46369
219 1 1.42939 19.9561 6.09003
220 1 0.500505 19.8741 5.74664
221 1 0.616742 20.482 6.47515
222 1 0.313146 20.2014 7.38563
223 1 1.00503 20.0942 8.17761
224 1 0.351223 19.3119 8.13133
225 1 -0.419186 19.0216 7.60081
226 1 -0.771247 18.3177 6.99317
227 1 -0.988926 17.409 6.97367
228 1 -1.94032 17.4369 7.20568
229 1 4.40276 22.5097 9.30982
230 1 5.04783 23.1541 9.42871
231 1 5.51851 22.6396 8.80523
232 1 6.00604 22.047 8.28268
233 1 5.55537 21.4591 7.67772
234 1 4.86651 20.8399 7.8826
235 1 4.3552 20.9886 8.76623
236 1 3.66957 20.7437 8.14086
237 1 2.87212 20.1538 8.0072
238 1 2.24632 20.8403 8.32714
239 1 2.80521 21.4839 8.83316
240 1 2.86779 21.933 9.67715
241 1 15.1479 19.6481 7.13016
242 1 14.2649 19.7327 6.68133
243 1 13.7211 19.5779 5.85256
244 1 14.2527 20.3068 5.66795
245 1 13.5029 20.615 6.27402
246 1 12.8993 19.8604 6.48222
247 1 13.1598 20.0613 7.3837
248 1 12.9148 19.7213 8.24823
249 1 12.9962 18.7323 8.44932
250 1 13.3367 18.2608 7.68045
251 1 13.1348 17.4847 8.31581
252 1 12.3769 17.4592 7.69013
253 1 14.248 18.9278 5.27309
254 1 13.6609 18.6036 4.56591
255 1 13.0877 19.2239 5.17451
256 1 13.2988 18.345 5.52147
257 1 12.611 17.7164 5.28591
258 1 12.2106 16.8646 5.12019
259 1 13.0595 16.8513 5.56212
260 1 13.7977 17.092 6.10461
261 1 14.5903 17.4861 6.45865
262 1 14.2462 16.8323 7.07026
263 1 13.3306 17.0776 7.30063
264 1 12.6012 17.154 6.65702
265 1 18.8735 21.4171 2.76742
266 1 18.6233 20.7973 3.45425
267 1 19.2498 20.1969 3.85803
268 1 19.0412 20.7595 4.68379
269 1 19.827 20.2417 4.67539
270 1 19.3024 19.4595 4.8902
271 1 19.6134 18.4851 5.1023
272 1 20.4154 18.7219 4.74579