ITEM: TIMESTEP
0
ITEM: NUMBER OF ATOMS
720
ITEM: BOX BOUNDS pp pp pp
0.0000000000000000e+00 3.2000000000000000e+01
0.0000000000000000e+00 3.2000000000000000e+01
0.0000000000000000e+00 3.2000000000000000e+01
ITEM: ATOMS id type xu yu zu
1 1 -5.14543 -9.07822 14.1298
2 1 -4.83521 -8.92591 13.1903
3 1 -5.511 -8.36491 13.5733
4 1 -5.81885 -7.59736 13.9192
5 1 -5.56836 -7.4811 13.0492
6 1 -5.26018 -6.77191 12.4161
7 1 -5.95267 -6.24709 12.228
8 1 -6.67666 -7.08392 12.1881
9 1 -6.41537 -6.98536 13.0703
10 1 -6.83738 -7.71234 13.6782
11 1 -6.64214 -8.52012 14.1573
12 1 -7.50672 -8.20836 14.2987
13 1 11.015 18.596 7.7454
14 1 10.6125 17.9535 8.36841
15 1 10.4479 17.2765 9.07613
16 1 10.3337 16.3438 9.10669
17 1 11.267 16.636 8.90466
18 1 11.6399 15.7244 8.93501
19 1 11.867 14.8956 8.44881
20 1 11.0724 14.9575 8.93877
21 1 11.0271 15.3767 9.87455
22 1 10.1783 15.2246 10.2112
23 1 9.51631 16.014 10.1191
24 1 9.78229 16.5947 10.845
25 1 22.3268 -14.952 10.1151
26 1 22.5888 -14.4865 9.21808
27 1 22.9631 -15.3358 8.76044
28 1 22.1121 -15.3991 8.19675
29 1 21.3777 -16.0256 8.51723
30 1 21.5923 -16.3692 7.72651
31 1 21.5142 -17.311 7.46048
32 1 21.256 -17.0308 6.5619
33 1 20.8641 -16.1471 6.19526
34 1 20.8594 -15.8962 5.29547
35 1 21.0767 -16.8808 5.25068
36 1 21.1226 -17.7984 5.51793
37 1 11.5768 -9.5672 19.3317
38 1 11.6775 -9.50038 18.3173
39 1 11.2923 -10.0146 17.6375
40 1 11.2542 -10.0073 16.7041
41 1 12.0378 -9.41007 16.7716
42 1 12.0937 -8.62632 17.4648
43 1 13.0552 -8.9058 17.539
44 1 12.7842 -8.87703 18.4561
45 1 12.4829 -8.50884 19.3751
46 1 13.3908 -8.61108 19.2869
47 1 13.9526 -7.89933 19.3973
48 1 14.4573 -8.17038 20.1864
49 1 15.5395 3.89922 3.55375
50 1 15.5502 3.47489 4.49624
51 1 15.6802 2.84025 5.15793
52 1 14.7244 2.95824 5.57876
53 1 15.2062 3.72714 5.90547
54 1 14.7623 4.35367 5.36953
55 1 15.357 5.09284 5.71839
56 1 15.1354 5.89853 6.16087
57 1 15.9347 5.91168 6.49285
58 1 16.6992 5.57628 5.95782
59 1 16.4566 5.05108 6.76401
60 1 15.8286 4.30244 6.58581
61 1 34.0976 13.3839 17.7806
62 1 33.3437 13.8359 18.1069
63 1 33.4461 12.9077 18.4732
64 1 34.2702 12.5186 18.3232
65 1 34.1437 11.6342 17.8633
66 1 34.0915 12.4139 17.2792
67 1 34.9716 12.9543 17.3106
68 1 35.2644 12.1729 16.6314
69 1 36.0809 11.6985 16.5787
70 1 35.9953 11.7905 17.5978
71 1 36.7562 11.2541 17.6336
72 1 36.2281 11.1641 18.4996
73 1 5.66171 4.08249 5.98142
74 1 5.67099 3.84858 5.03833
75 1 6.12277 3.35337 4.33099
76 1 5.88875 4.22458 3.8492
77 1 6.81445 4.02436 4.00709
78 1 7.01444 3.49579 3.2038
79 1 6.64914 4.03764 2.53625
80 1 6.83861 4.99106 2.71192
81 1 6.3687 5.37146 1.9619
82 1 5.49814 5.47656 1.67426
83 1 6.14149 6.00059 1.11636
84 1 6.86105 5.46625 0.648512
85 1 7.25215 11.8609 10.3096
86 1 7.55725 12.5592 10.904
87 1 8.30195 12.93 10.5412
88 1 8.83757 13.5649 9.98256
89 1 9.67715 14.0845 10.1293
90 1 9.25927 14.8306 9.76363
91 1 9.84298 15.3165 9.17366
92 1 9.46866 15.9396 8.41907
93 1 8.79947 16.4645 8.86951
94 1 8.03773 16.104 9.18209
95 1 7.45019 15.7591 9.99622
96 1 6.76021 15.2705 10.2954
97 1 9.72819 10.1515 5.15171
98 1 8.829 10.2272 4.94912
99 1 8.56283 9.59819 5.62614
100 1 8.3182 10.077 6.50335
101 1 7.54422 9.73318 6.08428
102 1 6.62262 9.89218 6.07107
103 1 5.983 10.7604 6.217
104 1 6.8314 11.0975 6.09094
105 1 7.19884 10.6921 5.32551
106 1 7.6731 9.94109 4.74099
107 1 6.77616 9.72606 4.83774
108 1 6.94289 9.06871 4.12781
109 1 16.5583 -2.42599 2.32619
110 1 16.6029 -3.3966 2.13474
111 1 17.2899 -3.67073 1.5104
112 1 16.675 -3.83364 0.78766
113 1 16.627 -3.52592 -0.143083
114 1 17.5281 -3.8564 0.0866233
115 1 18.1884 -3.266 -0.259104
116 1 18.8917 -2.9318 0.222231
117 1 19.6997 -3.05184 -0.254431
118 1 20.3316 -3.67419 -0.352558
119 1 20.2364 -4.24083 -1.14773
120 1 21.1346 -4.15925 -0.7866
121 1 20.9048 3.15532 -12.9296
122 1 20.6525 3.55372 -12.0347
123 1 20.1287 4.40201 -12.117
124 1 19.6125 4.80796 -12.8976
125 1 20.605 4.63739 -13.172
126 1 21.1027 3.90341 -13.6027
127 1 20.1304 3.61112 -13.7576
128 1 19.4105 3.94468 -13.2414
129 1 18.6786 4.10734 -12.6683
130 1 18.168 4.86845 -12.8212
131 1 18.6107 5.2647 -11.9801
132 1 17.6946 5.19176 -11.5779
133 1 23.2179 9.3598 0.341685
134 1 23.5001 8.40922 0.367053
135 1 22.7431 8.54591 0.956624
136 1 23.2544 7.82137 1.35
137 1 23.1951 6.9286 1.79627
138 1 22.8732 6.82912 0.918443
139 1 23.7536 6.51535 0.935082
140 1 24.6367 6.19868 0.608178
141 1 24.363 5.32113 0.485458
142 1 23.531 5.42428 0.119159
143 1 23.1268 5.38816 -0.842468
144 1 23.1725 4.61329 -0.311597
145 1 -8.63525 7.69148 3.06665
146 1 -8.71895 6.77939 2.84273
147 1 -8.86212 6.05725 2.24159
148 1 -8.34064 5.27723 1.95503
149 1 -7.65235 5.77808 1.60226
150 1 -6.98148 6.12137 2.29471
151 1 -7.86131 6.39262 2.57964
152 1 -7.58933 7.24021 2.0997
153 1 -8.1594 7.97775 2.04109
154 1 -7.89994 8.28536 1.20267
155 1 -7.9139 9.12274 0.72049
156 1 -7.73266 9.23183 1.65937
157 1 8.94394 14.5679 5.63986
158 1 8.06394 14.9606 5.43712
159 1 7.33927 14.6315 5.9736
160 1 7.33682 15.6499 5.91404
161 1 7.49425 15.422 6.87223
162 1 6.64543 15.8387 6.74018
163 1 6.12455 15.2886 7.30682
164 1 6.80825 15.5921 7.8856
165 1 6.28918 15.4297 8.59734
166 1 5.75641 16.3028 8.51547
167 1 5.25212 15.6187 8.1209
168 1 4.6299 15.3467 7.31989
169 1 -2.61408 14.9721 6.69963
170 1 -2.8783 15.5265 5.97922
171 1 -2.49752 16.0069 6.76766
172 1 -3.39231 15.8818 7.01297
173 1 -3.02988 16.7793 7.13629
174 1 -3.3668 17.5259 6.69125
175 1 -2.53744 17.7106 6.4542
176 1 -1.87929 17.0036 6.67237
177 1 -1.23582 16.6266 7.21555
178 1 -0.966434 15.7242 7.36955
179 1 -0.457729 14.9812 6.96242
180 1 0.535441 14.48 6.79411
181 1 11.7798 10.0082 -1.04827
182 1 10.9664 10.0349 -1.72819
183 1 10.1696 10.7812 -1.71077
184 1 9.87054 10.1279 -0.947133
185 1 9.87862 9.28755 -1.35374
186 1 9.99915 8.43624 -0.873409
187 1 10.8996 8.99276 -1.20532
188 1 10.9096 9.00107 -2.16664
189 1 11.7887 8.65523 -2.52629
190 1 12.7196 8.68987 -2.06111
191 1 12.9204 8.78159 -2.98574
192 1 12.6054 8.66331 -3.90486
193 1 21.3462 17.3683 11.6263
194 1 21.1711 18.3432 11.4603
195 1 22.1211 18.6096 11.4855
196 1 22.0593 17.8243 11.0664
197 1 22.5673 18.2487 10.4649
198 1 21.9831 18.9604 10.4587
199 1 22.2087 18.6118 9.52273
200 1 22.4961 19.5496 9.32867
201 1 21.5651 19.895 9.14481
202 1 20.6921 19.7359 8.7361
203 1 20.5474 19.4502 9.65394
204 1 20.2359 20.2718 9.4629
205 1 11.1763 16.1222 15.7333
206 1 11.2186 17.131 15.7473
207 1 10.7915 17.2429 16.6296
208 1 10.9846 16.3399 16.8213
209 1 10.6653 15.4399 16.8798
210 1 10.8678 15.1239 15.9718
211 1 11.3175 14.2496 16.1401
212 1 11.7112 13.7032 16.8661
213 1 11.3081 13.1265 17.6033
214 1 10.4885 12.8264 17.7908
215 1 10.6528 11.9422 18.1689
216 1 10.3269 11.2627 17.5778
217 1 -0.916192 19.4464 2.34699
218 1 -0.891291 20.3274 2.57567
219 1 -0.70567 20.2073 1.67997
220 1 -1.13198 20.4224 0.8756
221 1 -1.72774 20.7955 1.51391
222 1 -2.55562 21.236 0.998995
223 1 -3.02601 20.3987 0.831127
224 1 -3.38314 20.79 1.67877
225 1 -3.68663 21.7957 1.67532
226 1 -4.06958 21.6281 0.826168
227 1 -4.31238 22.4535 1.21106
228 1 -4.2026 23.3713 0.915691
229 1 -6.69909 29.1192 28.6767
230 1 -6.18946 29.9668 28.7023
231 1 -7.01045 29.959 29.1948
232 1 -6.91652 29.6113 30.0817
233 1 -7.64173 28.943 30.0569
234 1 -7.06071 28.2402 30.2212
235 1 -7.5718 27.3566 30.2553
236 1 -8.2015 27.8418 29.6451
237 1 -7.80301 27.9939 28.7357
238 1 -6.83604 27.8534 28.9877
239 1 -6.86358 28.3794 28.1458
240 1 -7.87607 28.5876 27.8912
241 1 19.1994 25.7343 2.66061
242 1 20.0052 25.92 3.0642
243 1 20.7506 25.2185 3.09172
244 1 19.8721 24.7714 2.81029
245 1 18.8154 24.6004 2.84096
246 1 18.2439 25.3312 3.30044
247 1 18.2968 24.577 4.04588
248 1 17.8312 24.6235 4.87945
249 1 18.2378 25.4621 4.77102
250 1 17.6986 26.0063 4.23323
251 1 18.3249 26.6068 4.53798
252 1 17.9277 27.3006 5.013
253 1 11.3485 11.6792 4.58946
254 1 11.6443 11.4743 3.73702
255 1 11.784 10.726 3.04406
256 1 10.8033 10.6656 2.93266
257 1 10.4572 10.9336 3.8295
258 1 9.68535 11.1876 4.31511
259 1 9.41308 10.5102 3.75257
260 1 8.6418 10.9597 3.39677
261 1 8.60948 11.7255 3.97933
262 1 9.07965 12.3176 3.53278
263 1 9.38943 12.1221 4.50979
264 1 10.0168 12.0823 5.1918
265 1 19.3092 13.3141 13.4211
266 1 20.1028 13.7446 13.8741
267 1 20.9089 13.2831 13.5589
268 1 21.1672 12.7024 14.1766
269 1 21.0179 13.3242 14.8825
270 1 19.9788 13.4921 15.2068
271 1 19.4789 14.3628 15.2332
272 1 20.0415 15.0155 14.7537
273 1 19.1353 15.38 15.0823
274 1 19.3372 15.8225 14.3233
275 1 19.2093 14.8458 14.2041
276 1 18.3367 15.142 14.3557
277 1 10.1688 6.12339 -0.0461995
278 1 10.6993 6.96218 0.0151563
279 1 10.3994 7.48683 0.754225
280 1 11.305 7.95549 0.941408
281 1 11.4162 8.95587 1.08869
282 1 11.624 8.67074 0.167
283 1 12.5143 8.51512 -0.0413182
284 1 11.8729 7.89404 -0.437429
285 1 12.4633 7.43625 -1.04136
286 1 11.6355 7.36091 -1.64022
287 1 11.4531 8.25139 -1.6888
288 1 12.2643 8.66385 -1.22076
289 1 -16.3088 32.694 -3.27088
290 1 -16.6114 32.2532 -2.41596
291 1 -17.0129 32.5661 -1.67592
292 1 -16.9572 32.0438 -0.8835
293 1 -16.0483 32.1264 -1.21123
294 1 -15.565 32.1157 -2.00835
295 1 -15.3897 33.0105 -1.95945
296 1 -16.1275 33.2825 -1.3415
297 1 -16.2826 33.4621 -2.35396
298 1 -17.1302 33.2038 -2.71078
299 1 -17.5117 33.9158 -2.26562
300 1 -17.072 34.3822 -2.93952
301 1 -3.8277 18.5246 7.30312
302 1 -4.43632 17.9869 6.63935
303 1 -4.37561 18.045 5.63533
304 1 -3.35343 17.7887 5.72296
305 1 -3.14981 16.8706 5.81575
306 1 -3.75999 16.1457 5.89742
307 1 -4.14233 16.986 5.88057
308 1 -5.03524 17.224 5.97911
309 1 -5.33918 17.5377 5.06386
310 1 -6.19939 17.1809 4.87948
311 1 -6.26032 17.4381 5.8155
312 1 -6.22239 18.3996 5.81466
313 1 16.4985 30.4324 3.03676
314 1 16.2701 31.3501 3.00646
315 1 17.2116 31.306 2.55605
316 1 16.7122 30.9101 1.74699
317 1 16.3325 30.3679 1.10256
318 1 16.1908 31.1 0.452898
319 1 15.3086 30.8728 0.580065
320 1 14.4056 31.2746 0.437167
321 1 14.838 30.8709 -0.360731
322 1 13.9506 30.796 -0.723833
323 1 14.1124 31.4144 -1.44123
324 1 15.0279 31.2926 -1.54353
325 1 8.19139 15.7384 7.76732
326 1 7.90605 16.6438 7.47487
327 1 8.78108 17.1604 7.30643
328 1 8.50296 16.8518 6.48704
329 1 8.54762 15.8261 6.57723
330 1 9.3753 16.1605 6.89084
331 1 10.0225 16.0118 6.08798
332 1 10.3566 16.8819 6.39566
333 1 11.1484 17.004 5.78955
334 1 10.5654 16.3226 5.33469
335 1 10.0433 17.1751 5.16291
336 1 10.9149 17.0947 4.72544
337 1 21.6452 -0.912578 -0.944152
338 1 21.9217 -0.0365598 -1.30927
339 1 21.9703 0.394071 -0.494369
340 1 20.9928 0.319999 -0.262899
341 1 20.6564 -0.29183 0.494028
342 1 19.8186 0.12767 0.509774
343 1 19.0779 0.599892 0.939503
344 1 18.6743 0.103376 1.60127
345 1 18.0524 0.377568 0.88885
346 1 17.1638 0.316121 0.461901
347 1 16.8804 0.675648 -0.408876
348 1 17.8038 0.754494 -0.472472
349 1 37.9822 40.3609 13.7062
350 1 37.0675 40.5745 13.948
351 1 37.6976 41.4926 13.7903
352 1 36.9626 41.9677 14.2595
353 1 36.7843 41.8665 13.2472
354 1 36.4452 41.0121 12.8584
355 1 35.5291 41.505 13.0104
356 1 35.7714 42.118 13.7269
357 1 35.8865 42.7926 12.995
358 1 35.0201 42.2816 12.58
359 1 34.7031 42.5912 11.7484
360 1 34.3644 43.5581 11.5356
361 2 9.37696 10.5789 26.2511
362 2 8.69189 10.9749 25.6386
363 2 8.84904 11.6548 25.0563
364 2 8.51398 12.0524 25.8111
365 2 7.86544 11.9989 26.5136
366 2 8.56437 11.4098 26.7855
367 2 9.03858 11.8042 27.4551
368 2 8.89955 12.4592 28.1403
369 2 8.06275 12.8233 27.5885
370 2 7.65545 13.7202 27.6501
371 2 8.3859 14.303 28.0119
372 2 7.57884 14.4679 28.4627
373 2 9.69566 14.8437 17.0258
374 2 9.74208 14.2743 16.206
375 2 9.85816 13.3957 16.7056
376 2 10.3717 14.1363 17.0466
377 2 10.7926 14.369 17.8032
378 2 11.6787 13.9713 18.0459
379 2 12.6253 14.2006 18.0409
380 2 12.7001 13.2108 17.6932
381 2 13.5281 13.8138 17.5453
382 2 13.6044 13.8136 18.5389
383 2 13.902 12.9735 18.1058
384 2 14.5879 13.1705 17.4399
385 2 17.9259 9.0165 26.8675
386 2 18.2664 8.37988 27.3773
387 2 17.6556 7.84221 26.8532
388 2 16.816 7.17219 26.9521
389 2 17.095 7.54726 27.8662
390 2 16.8016 6.63853 27.8522
391 2 16.6171 5.69066 27.7375
392 2 17.5942 5.93986 27.6187
393 2 18.1118 5.93591 28.5126
394 2 18.0519 5.12688 27.9842
395 2 17.2428 4.84543 28.3193
396 2 16.8019 4.61352 27.4697
397 2 19.1158 0.518908 30.3793
398 2 18.7323 1.26193 30.8629
399 2 19.0823 1.93655 30.3625
400 2 19.1287 2.87857 29.9388
401 2 18.108 2.94848 29.8303
402 2 17.5456 2.17406 29.5884
403 2 17.1524 1.85113 30.3515
404 2 17.7979 1.14196 29.9657
405 2 17.6993 0.299792 30.3746
406 2 18.2418 -0.483695 30.5292
407 2 18.4747 0.0408977 31.2767
408 2 19.1049 -0.776097 31.5924
409 2 18.9659 9.78161 15.9496
410 2 19.2478 10.6237 15.6016
411 2 20.2317 10.7903 15.5906
412 2 20.1744 9.80145 15.6539
413 2 20.9517 9.85186 16.2114
414 2 21.4911 9.12487 16.3509
415 2 22.3537 9.50612 16.5315
416 2 22.1928 9.26332 17.3999
417 2 21.9448 8.32917 17.2407
418 2 22.666 7.72967 17.0205
419 2 22.9579 8.20662 17.7664
420 2 23.5997 7.57853 17.5375
421 2 39.558 9.78674 13.7919
422 2 38.7597 9.26929 13.7351
423 2 39.0807 8.73182 14.4695
424 2 38.68 9.72426 14.696
425 2 38.5212 10.4928 15.2891
426 2 37.7056 10.5 15.7594
427 2 36.9905 10.6071 16.431
428 2 36.3524 9.95362 16.063
429 2 36.1163 9.23158 15.4573
430 2 36.4634 8.36424 15.286
431 2 37.0372 9.08255 15.4938
432 2 37.625 8.54092 15.009
433 2 5.93951 13.119 30.8464
434 2 5.52131 12.6146 31.466
435 2 5.67286 12.4766 32.428
436 2 6.62954 12.4365 32.2074
437 2 6.84579 11.847 32.9472
438 2 7.7802 11.6806 32.4522
439 2 7.33755 10.7597 32.2329
440 2 8.22381 10.6465 32.0107
441 2 8.1959 10.9081 32.9788
442 2 8.78854 10.0676 33.3253
443 2 9.09823 9.23674 33.461
444 2 10.0866 9.10319 33.4838
445 2 6.45682 8.50296 27.8742
446 2 7.17961 9.22467 27.6922
447 2 7.67867 10.0079 27.3929
448 2 6.82991 10.4775 27.6337
449 2 6.25991 11.3014 27.9687
450 2 6.83885 11.8885 28.4631
451 2 7.21832 12.3343 29.2535
452 2 6.27965 12.3123 29.3153
453 2 5.93342 11.3677 29.2979
454 2 6.20609 10.3861 29.3859
455 2 6.64482 9.67491 29.8288
456 2 6.97986 8.69963 29.8213
457 2 19.9366 6.69951 26.7417
458 2 20.82 7.1216 26.5485
459 2 20.3521 8.04374 26.7028
460 2 20.7234 7.80005 27.5974
461 2 21.6778 7.71661 27.6419
462 2 21.924 6.99445 27.0964
463 2 22.4246 6.69901 26.2465
464 2 22.8317 7.41459 26.7705
465 2 23.2043 8.26684 26.525
466 2 23.3405 8.16517 27.4836
467 2 24.2004 7.93115 27.3071
468 2 24.3323 7.17251 27.9695
469 2 17.1441 6.14353 16.8251
470 2 17.8314 6.88566 16.6888
471 2 18.2996 7.50245 17.3351
472 2 18.5156 7.71853 16.4197
473 2 19.2111 8.28314 16.8274
474 2 19.4829 7.44591 17.2848
475 2 20.3132 7.07324 17.7823
476 2 20.5376 6.23487 17.3314
477 2 20.4785 5.3228 17.4908
478 2 20.5135 5.49205 16.5619
479 2 20.5493 4.46916 16.4094
480 2 21.0905 4.45348 15.6496
481 2 16.5714 8.84219 5.8394
482 2 17.1899 9.0878 6.52106
483 2 16.9646 9.81352 7.07772
484 2 16.3981 9.01715 7.13725
485 2 15.759 9.73228 6.95007
486 2 16.079 9.72011 6.10394
487 2 16.5633 10.4555 5.75628
488 2 17.1528 10.8355 6.35301
489 2 17.0273 11.0974 7.32269
490 2 17.5297 11.8021 7.60933
491 2 18.084 12.2057 8.34398
492 2 18.8001 12.8258 8.57114
493 2 20.4313 3.99353 26.7524
494 2 20.7375 4.10639 27.67
495 2 19.8603 4.32434 27.9366
496 2 19.9588 3.39275 27.9382
497 2 19.7951 2.58156 28.4117
498 2 20.1312 2.81288 29.3186
499 2 20.5423 2.29522 30.0527
500 2 21.4073 2.04665 30.0619
501 2 21.0975 1.33014 29.4913
502 2 21.6157 0.47527 29.7812
503 2 21.6144 -0.660463 29.7883
504 2 20.8337 -0.270611 29.2079
505 2 12.9961 14.0389 16.1575
506 2 13.1754 13.151 16.615
507 2 13.7937 12.6781 17.1343
508 2 13.4719 12.0304 16.5348
509 2 14.5061 12.2159 16.4223
510 2 14.104 12.2602 15.4971
511 2 13.1657 12.784 15.5834
512 2 13.9422 12.9208 16.15
513 2 14.1301 13.1671 15.2075
514 2 13.8599 12.5441 14.4909
515 2 12.9342 12.1751 14.4789
516 2 13.4752 11.5272 14.1
517 2 -7.14997 22.6239 10.401
518 2 -6.25854 22.8871 10.1791
519 2 -5.78255 23.6059 10.5516
520 2 -5.84287 24.2083 11.3372
521 2 -6.59335 23.6455 11.3156
522 2 -6.16373 22.8062 11.4218
523 2 -5.35859 22.2814 11.7679
524 2 -6.14699 21.8025 11.4726
525 2 -6.16408 21.8475 10.5334
526 2 -5.40878 21.2739 10.4675
527 2 -6.10201 21.231 9.66924
528 2 -7.08914 21.5609 9.59663
529 2 21.8067 8.06076 26.2579
530 2 22.2883 8.64583 26.8807
531 2 21.8423 9.48307 27.0772
532 2 21.4487 8.96805 27.7608
533 2 22.2519 8.85715 28.2948
534 2 23.1406 9.02177 28.0602
535 2 23.4343 9.82192 28.571
536 2 22.9313 9.88892 29.3215
537 2 22.7982 10.8128 29.3202
538 2 21.9074 11.1411 29.5468
539 2 21.2156 11.5034 29.0019
540 2 20.3991 11.0702 29.1949
541 2 17.5775 4.71333 48.4412
542 2 17.5325 5.47298 47.9116
543 2 16.8169 5.81986 47.4716
544 2 16.1847 5.93534 48.1492
545 2 16.2372 5.93852 49.1553
546 2 15.5006 5.31465 49.2525
547 2 15.2845 6.20991 49.1952
548 2 15.2403 7.04179 49.5982
549 2 15.0751 6.81401 50.5651
550 2 15.8253 7.22411 50.6606
551 2 16.3238 7.96082 50.2045
552 2 15.3012 8.07237 50.1908
553 2 38.4592 14.2535 5.10564
554 2 38.197 14.8462 5.98049
555 2 38.544 13.982 6.22125
556 2 38.0732 13.4786 6.9286
557 2 38.8885 13.263 7.612
558 2 39.2161 13.2107 8.49697
559 2 39.5986 14.2036 8.49481
560 2 40.265 14.8086 8.89366
561 2 39.492 14.7639 9.52373
562 2 38.724 14.6271 8.94423
563 2 38.2884 14.5315 9.75879
564 2 38.5258 13.5926 10.0489
565 2 35.1847 9.58278 22.692
566 2 36.0416 9.90338 22.2109
567 2 35.8833 9.01852 21.7566
568 2 35.404 8.4535 22.4952
569 2 34.9144 8.87058 21.8077
570 2 35.0006 9.33327 20.9369
571 2 34.3475 9.9545 21.2583
572 2 34.0768 10.331 22.2218
573 2 33.4216 9.81523 21.7783
574 2 32.7935 9.78019 22.5014
575 2 33.1364 9.9971 23.3327
576 2 32.2777 10.2356 23.6034
577 2 -14.9954 32.6113 25.821
578 2 -14.1767 33.1406 26.3161
579 2 -13.8451 32.3365 25.9634
580 2 -12.9515 32.0424 26.1149
581 2 -13.2075 31.3086 25.4661
582 2 -12.4933 30.7181 25.6466
583 2 -12.7444 29.9798 25.0351
584 2 -13.3635 29.1664 25.2385
585 2 -12.6963 28.7277 25.7573
586 2 -12.0005 28.1174 25.7839
587 2 -11.1997 28.3742 25.3989
588 2 -10.5577 27.8345 25.7899
589 2 7.72102 26.0538 11.6749
590 2 7.14126 25.249 11.3581
591 2 7.14574 24.5829 10.6232
592 2 7.16086 24.7824 9.65328
593 2 6.70783 24.09 9.10275
594 2 5.90183 24.4888 9.41479
595 2 6.30928 25.1142 8.74431
596 2 5.85289 24.3535 8.33914
597 2 5.16785 24.0499 8.89013
598 2 4.98109 23.6994 7.91754
599 2 5.00397 23.0913 7.11836
600 2 5.7894 22.5272 6.58763
601 2 20.8051 23.6595 35.386
602 2 21.3262 24.0326 34.5086
603 2 22.0031 24.3101 35.143
604 2 22.6449 23.765 34.6363
605 2 22.885 24.4936 33.9848
606 2 22.3365 25.1475 33.6475
607 2 22.3552 24.827 32.7246
608 2 22.2095 24.0681 32.2193
609 2 22.5953 24.1984 31.2808
610 2 21.6966 24.5789 31.4994
611 2 21.1525 24.3091 32.3856
612 2 21.5169 24.1764 33.2523
613 2 34.0854 21.755 28.9451
614 2 35.1318 21.5698 29.0183
615 2 35.0988 22.1327 28.2491
616 2 35.7272 21.5936 27.737
617 2 35.3614 20.9375 27.1849
618 2 34.5326 20.9942 27.5326
619 2 33.8087 20.7977 28.0325
620 2 32.9994 21.0037 28.3657
621 2 32.8018 21.9295 28.6853
622 2 32.0551 21.4759 28.9569
623 2 31.1626 21.1712 28.7224
624 2 31.4342 20.3427 29.0962
625 2 10.0746 11.8797 33.4127
626 2 9.56877 11.6818 34.2067
627 2 10.3911 11.3195 34.3208
628 2 11.2569 11.1741 33.6155
629 2 11.8646 10.9691 32.873
630 2 12.0831 10.201 32.4073
631 2 12.7779 9.66904 32.8834
632 2 13.0595 9.99092 33.8105
633 2 12.1436 10.2054 33.6805
634 2 11.1445 10.2035 33.4748
635 2 10.1823 10.2831 33.8989
636 2 9.25252 10.7363 33.8465
637 2 33.6589 10.8415 12.8463
638 2 33.8962 10.4756 13.732
639 2 34.7115 10.7875 14.1857
640 2 34.9461 11.3857 13.5074
641 2 34.5859 12.041 14.1135
642 2 34.9948 11.7192 14.966
643 2 35.782 11.3782 15.3045
644 2 35.7739 11.3919 14.3761
645 2 36.1499 12.3024 14.7432
646 2 35.2774 12.5654 14.5089
647 2 35.4471 12.6318 15.4744
648 2 34.4545 13.0172 15.5681
649 2 14.4387 35.97 21.5421
650 2 14.5847 35.1261 21.9573
651 2 14.6469 34.6328 22.8001
652 2 13.8536 34.1646 23.0235
653 2 13.3053 34.406 23.8081
654 2 13.9599 34.9872 23.9976
655 2 14.1004 34.3218 24.6814
656 2 13.4173 33.5014 24.6366
657 2 13.9944 32.9438 25.2957
658 2 14.1308 32.7616 26.2319
659 2 14.4288 33.6389 26.3384
660 2 15.1904 33.5624 25.8023
661 2 -15.4475 17.7699 19.5359
662 2 -15.8102 18.2695 20.2676
663 2 -16.2234 19.1271 20.0838
664 2 -16.1687 18.8815 20.9639
665 2 -17.1228 18.751 20.7528
666 2 -16.8135 18.1552 20.0894
667 2 -16.6276 17.9269 19.1036
668 2 -16.3695 18.8732 18.9795
669 2 -16.9479 19.5793 18.6173
670 2 -17.7838 19.9181 18.2436
671 2 -17.9361 18.9452 17.9599
672 2 -18.4016 19.008 18.8821
673 2 11.2905 28.9145 21.6987
674 2 11.1026 28.7001 22.5964
675 2 10.4361 29.0894 23.2393
676 2 11.1295 29.6963 22.9228
677 2 11.0411 29.6231 23.8983
678 2 11.8243 29.3687 24.3424
679 2 11.3572 28.5334 24.6936
680 2 10.8957 28.2542 23.9479
681 2 11.3941 27.4354 24.246
682 2 11.683 26.5588 24.9174
683 2 10.7631 26.6512 24.7621
684 2 10.5817 26.4023 25.6283
685 2 20.7365 22.2778 36.3483
686 2 20.5002 22.0339 35.4587
687 2 19.6459 22.4778 35.9568
688 2 19.7385 21.4936 36.0487
689 2 19.4937 21.2339 35.1809
690 2 18.7297 21.273 35.8986
691 2 17.8571 20.9204 36.0056
692 2 17.8195 21.4689 35.2355
693 2 18.5271 21.1096 34.6963
694 2 18.9421 21.576 33.9402
695 2 19.4345 20.8246 33.427
696 2 18.9674 20.8177 32.5401
697 2 34.6228 49.3286 14.9691
698 2 34.3644 50.2308 15.0992
699 2 34.6097 50.0725 14.2144
700 2 34.2339 49.3195 13.8755
701 2 33.5503 49.441 14.584
702 2 33.2065 49.6146 15.5724
703 2 33.1535 50.344 15.0937
704 2 32.2611 50.0104 15.3339
705 2 31.4342 50.4611 14.836
706 2 30.8682 49.9594 14.1811
707 2 31.0684 49.7706 13.144
708 2 30.5967 48.9238 13.1262
709 2 20.946 30.6307 30.4409
710 2 20.2677 30.6615 29.7165
711 2 19.4418 31.0712 29.1324
712 2 19.1877 30.382 29.7652
713 2 19.1012 29.5318 29.9989
714 2 19.298 29.9584 30.8429
715 2 18.5705 30.5082 30.6256
716 2 17.6177 30.7726 30.7177
717 2 17.0455 31.312 31.1699
718 2 16.8998 30.3695 31.3622
719 2 16.522 30.776 30.3927
720 2 16.7836 30.8387 29.496
ITEM: TIMESTEP
1000
ITEM: NUMBER OF ATOMS
720
ITEM: BOX BOUNDS pp pp pp
0.0000000000000000e+00 3.2000000000000000e+01
0.0000000000000000e+00 3.2000000000000000e+01
0.0000000000000000e+00 3.2000000000000000e+01
ITEM: ATOMS id type xu yu zu
1 1 -6.72871 -8.39649 13.7182
2 1 -6.11732 -8.1081 14.4241
3 1 -5.33458 -7.50515 14.5932
4 1 -4.8678 -8.14132 14.0766
5 1 -5.41123 -8.90963 13.7855
6 1 -5.33667 -8.56102 12.906
7 1 -4.98741 -8.38505 12.0424
8 1 -5.04256 -7.49549 11.6945
9 1 -5.94473 -7.6022 11.5678
10 1 -6.21241 -7.17885 12.3902
11 1 -6.31069 -6.493 13.1065
12 1 -6.08665 -7.57341 13.3638
13 1 14.3555 18.9422 9.75366
14 1 14.0816 18.0678 9.98237
15 1 13.2041 17.914 9.58515
16 1 13.5059 17.2132 10.2216
17 1 13.2699 16.5071 10.9815
18 1 13.5806 16.0349 11.8223
19 1 14.3907 15.6843 12.4568
20 1 13.5408 15.3686 12.642
21 1 12.7518 16.0959 12.6835
22 1 12.8442 16.928 12.143
23 1 13.4221 17.6483 11.8177
24 1 14.3907 17.4075 11.9932
25 1 22.5361 -16.3214 6.63084
26 1 22.7128 -16.2814 7.64515
27 1 23.3421 -16.0431 8.39098
28 1 24.2772 -15.742 8.46729
29 1 24.5422 -14.882 8.76269
30 1 25.496 -14.6535 8.94883
31 1 25.3918 -15.5283 8.60888
32 1 24.8632 -15.4136 7.70497
33 1 24.8524 -16.4152 8.01203
34 1 24.4133 -17.2141 7.7535
35 1 24.3275 -17.8607 7.00141
36 1 24.0509 -18.8058 7.13723
37 1 13.2163 -7.93099 17.3104
38 1 13.3693 -7.28574 18.0153
39 1 13.8781 -8.02289 18.2113
40 1 13.1936 -8.58984 18.6371
41 1 12.6785 -9.14243 17.8774
42 1 12.2884 -8.84142 16.9672
43 1 11.4812 -8.26603 16.6178
44 1 11.3923 -7.37982 16.2955
45 1 10.7228 -7.43035 16.9544
46 1 11.0374 -7.86266 17.755
47 1 11.7486 -7.28902 17.9494
48 1 11.442 -7.24991 18.8897
49 1 11.9573 2.19128 5.93342
50 1 12.3301 2.71808 6.72374
51 1 12.9798 3.46409 6.86121
52 1 13.54 2.99201 6.11119
53 1 14.2686 3.49756 6.50579
54 1 14.9688 4.17002 6.58268
55 1 15.8879 4.02467 6.68479
56 1 16.576 4.60136 6.16855
57 1 16.9867 4.12354 5.49233
58 1 17.4814 4.8662 4.99596
59 1 16.5764 5.20144 4.89641
60 1 16.7112 4.92856 3.96078
61 1 34.0173 12.6228 17.8692
62 1 33.479 12.1725 17.1753
63 1 33.4476 11.4194 17.8441
64 1 34.3809 11.401 18.2969
65 1 35.0071 11.6912 18.9033
66 1 35.1441 12.4412 18.2395
67 1 35.1155 12.7561 17.3147
68 1 34.7108 11.9526 16.8057
69 1 33.9991 11.1515 16.6206
70 1 34.8844 10.9791 16.2216
71 1 35.6537 11.3665 16.5967
72 1 36.5346 11.7732 16.3634
73 1 4.05437 2.83733 4.04749
74 1 3.92585 3.75546 4.15081
75 1 4.82761 3.85151 3.84932
76 1 5.57831 4.20087 3.26249
77 1 6.21751 3.72082 2.58025
78 1 5.23313 4.00626 2.35126
79 1 4.32156 4.15746 2.67353
80 1 4.75997 4.87946 3.22323
81 1 4.34147 4.69306 4.12446
82 1 5.14641 5.37721 4.11927
83 1 4.96908 4.86187 4.85611
84 1 4.17927 4.77509 5.38307
85 1 9.57419 15.0525 8.71408
86 1 10.2013 14.6182 8.15689
87 1 11.1799 14.7774 8.31106
88 1 11.257 15.5797 8.71482
89 1 10.1771 15.8167 8.64275
90 1 9.53833 16.4592 8.91132
91 1 9.50871 17.1516 9.64778
92 1 10.5258 17.1752 9.84015
93 1 10.0592 16.8176 10.5749
94 1 10.1188 16.0528 9.98858
95 1 10.0846 15.6867 10.8995
96 1 9.11025 15.8109 10.7397
97 1 8.87245 10.9581 5.3073
98 1 9.54009 11.7003 5.41772
99 1 10.0024 10.9836 4.97948
100 1 9.69877 10.257 5.55352
101 1 10.4946 10.3483 6.05379
102 1 10.7695 11.1982 5.65362
103 1 10.1213 11.6625 6.27733
104 1 9.1847 11.5467 6.61615
105 1 9.41407 11.9841 7.41626
106 1 8.50849 12.1886 7.86296
107 1 8.33956 12.5637 8.75827
108 1 7.65871 12.6172 7.98836
109 1 15.6314 0.352023 -3.20296
110 1 16.0287 -0.411924 -3.39557
111 1 16.7919 0.0677574 -3.19177
112 1 17.2227 -0.607043 -2.70162
113 1 17.022 -1.23053 -2.0484
114 1 16.7126 -1.50697 -1.13675
115 1 16.5901 -2.34266 -1.71594
116 1 17.3545 -2.48961 -2.35416
117 1 18.2859 -2.26689 -2.10315
118 1 19.2194 -1.95452 -2.3024
119 1 19.6681 -1.7264 -1.45244
120 1 20.3759 -2.13977 -0.837831
121 1 19.2244 1.83666 -14.5452
122 1 19.5374 1.58049 -15.4232
123 1 20.2076 2.00831 -14.9011
124 1 20.9362 2.34761 -15.5935
125 1 20.2859 2.85694 -15.9531
126 1 20.5261 3.65139 -15.3563
127 1 19.7234 3.62867 -14.9214
128 1 19.067 4.21646 -14.6093
129 1 19.8367 4.69014 -14.949
130 1 19.152 4.96736 -15.6591
131 1 18.9374 4.23373 -16.2307
132 1 18.4354 5.02387 -16.4864
133 1 21.6043 7.16579 -0.71435
134 1 21.5343 8.11446 -0.458148
135 1 22.4532 8.30529 -0.237305
136 1 22.3933 7.72576 -0.978353
137 1 22.6831 6.894 -1.47622
138 1 23.6608 7.18009 -1.28677
139 1 23.2767 7.29149 -0.383226
140 1 23.206 6.30231 -0.507727
141 1 24.0486 6.31012 -0.946097
142 1 24.3553 5.47152 -1.41157
143 1 24.226 4.95054 -2.23876
144 1 23.4395 4.93884 -1.75246
145 1 -9.24082 9.5615 0.601334
146 1 -8.70481 10.1065 1.28816
147 1 -7.74175 10.228 1.49092
148 1 -7.32934 10.0952 0.582238
149 1 -6.71493 9.39373 0.114118
150 1 -6.15699 8.83079 -0.478752
151 1 -6.91982 8.34681 -0.175335
152 1 -7.73022 8.15867 0.33106
153 1 -7.47798 8.99652 0.787349
154 1 -7.97356 9.53047 -0.0255979
155 1 -7.79476 9.18086 -0.942832
156 1 -8.58197 9.07464 -1.66239
157 1 6.45995 16.2865 5.87125
158 1 5.57718 16.6275 6.06126
159 1 5.39545 15.9075 6.77258
160 1 6.21229 16.0624 7.04774
161 1 7.14948 15.753 6.87206
162 1 7.88343 15.7283 6.33002
163 1 8.62686 15.8884 6.88454
164 1 8.9486 16.3079 7.65443
165 1 7.94542 16.2485 7.59844
166 1 7.44208 16.7385 8.19042
167 1 7.70187 17.0527 7.28217
168 1 8.18051 17.7889 7.0094
169 1 -2.46661 15.4815 5.95495
170 1 -1.63995 15.6454 5.49018
171 1 -0.707399 15.616 5.39006
172 1 -0.705394 16.5888 5.64867
173 1 -0.714448 17.2474 4.93091
174 1 -1.25671 16.3555 4.63291
175 1 -1.70315 15.5816 4.27685
176 1 -1.78139 16.0498 3.43773
177 1 -1.45701 16.8975 3.70947
178 1 -0.524805 16.6489 3.9056
179 1 -0.40549 15.7175 4.16412
180 1 0.566809 15.4354 4.14007
181 1 15.5207 10.4276 -1.9359
182 1 14.5893 10.2657 -2.00712
183 1 13.65 10.6051 -1.94708
184 1 12.6307 11.0258 -1.98889
185 1 11.7489 11.3689 -1.63833
186 1 11.7993 10.3796 -1.19632
187 1 11.3007 10.2643 -2.03426
188 1 10.9014 10.9329 -2.57673
189 1 11.289 10.8984 -3.44017
190 1 11.6132 9.95819 -3.15053
191 1 12.2434 10.6346 -2.9768
192 1 12.9445 9.94443 -3.01748
193 1 21.9605 20.3014 10.167
194 1 22.3431 19.7485 10.8035
195 1 21.8859 20.2408 11.4473
196 1 21.2893 19.531 11.7745
197 1 21.5293 18.8294 11.1525
198 1 20.8037 19.0636 10.4148
199 1 21.0708 18.5399 9.72511
200 1 21.6058 17.9541 10.2648
201 1 21.3541 17.7698 11.1492
202 1 20.4818 17.9901 10.9165
203 1 20.4422 17.3991 10.0531
204 1 20.0695 18.2348 9.53057
205 1 7.05573 13.6144 13.6222
206 1 7.31274 13.4407 14.5279
207 1 8.10111 13.5378 13.9692
208 1 9.03502 13.628 14.292
209 1 8.49451 14.0598 14.9346
210 1 8.62339 14.8647 15.6194
211 1 9.57791 14.8762 15.3598
212 1 10.5681 14.9925 15.2924
213 1 10.3978 14.1482 14.9615
214 1 10.4103 13.6492 14.1189
215 1 11.3822 13.6126 14.1496
216 1 11.391 14.6144 13.9832
217 1 -3.02835 19.7664 0.046782
218 1 -2.42215 19.0641 0.399183
219 1 -1.62865 19.6344 0.239059
220 1 -2.12084 20.4769 0.64863
221 1 -1.19473 20.4002 0.96694
222 1 -0.918321 21.2041 0.527536
223 1 -1.10041 21.6871 1.36894
224 1 -1.49317 22.5883 1.22593
225 1 -1.11247 22.3926 0.429402
226 1 -1.37343 23.2096 -0.166973
227 1 -2.19403 23.6417 -0.495306
228 1 -2.7768 23.8352 -1.29444
229 1 -7.6765 27.6049 28.1958
230 1 -7.85907 27.0213 28.9591
231 1 -7.39101 26.6095 28.2006
232 1 -7.15608 25.5472 27.9258
233 1 -6.97351 26.1262 27.2141
234 1 -6.0231 26.2953 27.1796
235 1 -6.1294 26.245 28.1203
236 1 -5.53326 25.5879 28.5522
237 1 -5.77934 24.7128 28.6838
238 1 -5.62254 24.8858 27.7704
239 1 -5.80248 25.0994 26.8537
240 1 -6.72264 25.0123 27.1708
241 1 22.0942 26.7693 3.50164
242 1 22.072 25.9042 3.05139
243 1 22.2549 25.6006 3.9311
244 1 22.8948 26.1132 4.48247
245 1 22.6468 26.7161 5.15343
246 1 21.7686 26.932 5.06243
247 1 21.0206 26.2539 5.01734
248 1 20.5546 26.2228 5.88902
249 1 21.2598 26.8067 6.18749
250 1 20.9318 27.5871 5.63517
251 1 21.4467 27.9006 6.29189
252 1 22.1178 28.5434 6.63328
253 1 11.6223 11.2648 3.52449
254 1 11.0744 10.3819 3.42486
255 1 10.9639 9.40536 3.39303
256 1 10.2899 9.05684 2.76844
257 1 9.73948 9.79185 2.91049
258 1 9.91212 10.0549 3.83648
259 1 10.1273 10.9298 4.02744
260 1 9.60181 11.7655 4.16834
261 1 10.3409 12.1997 3.61085
262 1 11.0173 12.8346 3.89543
263 1 11.2455 12.8989 4.8482
264 1 12.0343 12.2934 4.65221