ITEM: TIMESTEP
1000
ITEM: NUMBER OF ATOMS
1440
ITEM: BOX BOUNDS pp pp pp
0.0000000000000000e+00 3.2000000000000000e+01
0.0000000000000000e+00 3.2000000000000000e+01
0.0000000000000000e+00 3.2000000000000000e+01
ITEM: ATOMS id type xu yu zu
1 1 0.428056 0.381345 -2.06296
2 1 0.832371 0.763517 -1.27806
3 1 -0.0408559 0.640652 -0.865871
4 1 0.143633 0.681036 0.0789609
5 1 -0.279099 0.661378 0.946886
6 1 0.402342 0.603965 1.60785
7 1 -0.183041 0.320656 2.31667
8 1 0.757321 0.280278 2.52291
9 1 0.312884 0.36278 3.37238
10 1 0.0903276 0.294992 4.29695
11 1 0.122828 0.299587 5.26944
12 1 0.0366419 0.282211 6.26806
13 1 -0.0821023 0.0446446 7.20639
14 1 0.109284 -0.34101 8.07436
15 1 0.0335608 -0.0293224 8.97226
16 1 0.0576225 0.170365 9.89699
17 1 0.412977 0.393992 10.7554
18 1 0.564596 0.312157 11.7264
19 1 -0.0575783 0.126524 12.4467
20 1 0.228621 -0.224282 13.3025
21 1 -0.105774 -0.742585 14.0472
22 1 0.097243 0.109142 14.4724
23 1 0.410831 -0.231083 15.3212
24 1 -0.534296 -0.0773314 15.2979
25 1 4.31666 -0.775074 -1.13159
26 1 5.0089 -0.780242 -0.460214
27 1 4.69727 0.105571 -0.318065
28 1 4.55346 0.437487 0.569181
29 1 4.61702 -0.418202 1.00354
30 1 5.20444 -0.162545 1.71363
31 1 4.70501 -0.086126 2.53548
32 1 4.87484 -0.331373 3.45534
33 1 5.0245 0.125092 4.2869
34 1 5.3067 0.127427 5.20123
35 1 5.08842 -0.32566 6.01884
36 1 5.63866 -0.34037 6.80268
37 1 5.26056 -0.279207 7.68463
38 1 5.24548 -0.223556 8.63508
39 1 5.27844 -0.157734 9.60032
40 1 5.3698 -0.163102 10.5589
41 1 5.20777 -0.0995027 11.4952
42 1 5.33725 -0.00671229 12.4474
43 1 5.85835 0.164595 13.2511
44 1 4.91886 0.270759 13.4129
45 1 4.90788 -0.185267 14.2465
46 1 5.54757 0.39726 14.694
47 1 4.7056 0.355697 15.1549
48 1 4.30891 0.420298 16.0257
49 1 10.1309 -0.543042 -2.31959
50 1 10.4362 -0.245377 -1.43832
51 1 10.0977 0.0430954 -0.57164
52 1 10.2917 -0.596386 0.121804
53 1 10.5653 0.0988445 0.731304
54 1 9.77746 -0.305866 1.1057
55 1 10.3169 -0.230513 1.90204
56 1 10.3228 -0.558599 2.80924
57 1 10.64 -0.376558 3.70393
58 1 10.6076 -0.069289 4.62301
59 1 10.4809 -0.013651 5.57959
60 1 10.5319 0.445031 6.42364
61 1 10.3169 0.501773 7.37069
62 1 9.87954 0.481521 8.21898
63 1 9.89018 0.113617 9.11037
64 1 10.014 -0.218746 9.99691
65 1 10.2893 -0.147058 10.9161
66 1 10.6206 -0.209761 11.794
67 1 11.3878 -0.0967579 12.3446
68 1 11.1963 -0.284695 13.2768
69 1 10.9156 -0.277324 14.2009
70 1 10.5859 0.106487 15.0067
71 1 10.61 -0.286578 15.878
72 1 10.4701 0.6296 16.1337
73 1 16.696 0.199365 -1.96074
74 1 16.2726 -0.326548 -1.29356
75 1 16.4668 -0.0324202 -0.392829
76 1 15.709 0.509702 -0.605675
77 1 15.1454 0.291174 0.172801
78 1 14.8997 0.557549 1.07489
79 1 15.0337 0.172349 1.94741
80 1 14.9939 0.393424 2.88575
81 1 14.8617 0.301867 3.83566
82 1 15.0322 0.314121 4.7945
83 1 15.4431 0.565683 5.63207
84 1 15.3388 0.332432 6.57167
85 1 15.3604 0.187772 7.5306
86 1 15.8582 0.738902 8.15248
87 1 15.3924 0.324034 8.90487
88 1 15.1858 0.0620741 9.81794
89 1 15.0024 -0.00416849 10.7822
90 1 15.0386 -0.11932 11.7558
91 1 14.9478 -0.0549921 12.7108
92 1 14.3143 0.0280283 13.4387
93 1 15.2173 -0.125969 13.7237
94 1 14.5918 -0.492588 14.3522
95 1 14.8388 0.0996035 15.0808
96 1 14.3685 -0.636365 15.4998
97 1 20.0078 0.628472 -1.47561
98 1 20.0781 0.446325 -0.533604
99 1 21.0296 0.492173 -0.65895
100 1 20.8544 -0.257664 -0.0763649
101 1 20.1934 -0.394594 0.620543
102 1 20.1044 0.130471 1.41711
103 1 20.3124 -0.425174 2.17003
104 1 20.1781 0.0966281 2.98139
105 1 20.1883 0.356924 3.9215
106 1 20.4731 -0.00722017 4.77272
107 1 20.2933 0.383187 5.62082
108 1 20.4598 0.101248 6.5262
109 1 20.0542 0.14784 7.405
110 1 19.8837 0.162427 8.352
111 1 19.6098 -0.679232 8.74483
112 1 19.7547 -0.0041361 9.40704
113 1 19.7694 -0.014316 10.3651
114 1 20.008 -0.040012 11.303
115 1 20.0274 -0.086308 12.2615
116 1 20.1286 -0.710405 12.9836
117 1 20.4208 0.165778 13.2639
118 1 20.6946 0.182531 14.1693
119 1 20.8685 0.697027 14.9496
120 1 21.1139 1.32118 15.6176
121 1 25.5971 -0.233617 -2.44572
122 1 25.3444 0.367216 -1.74013
123 1 24.3947 0.340314 -1.61602
124 1 24.6179 -0.149434 -0.821794
125 1 25.1906 -0.0690938 -0.0515295
126 1 25.1224 -0.0619182 0.906353
127 1 25.4235 -0.384728 1.75293
128 1 25.3057 -0.0855608 2.66127
129 1 25.6767 0.212416 3.48905
130 1 25.8105 0.297757 4.44461
131 1 25.6365 0.329059 5.38948
132 1 25.0311 0.249412 6.12361
133 1 25.1553 0.405997 7.06342
134 1 24.6407 0.101636 7.82223
135 1 25.0933 0.0611942 8.67098
136 1 25.1193 0.0474385 9.61887
137 1 25.1396 -0.2206 10.5278
138 1 25.165 -0.15002 11.4773
139 1 24.9023 -0.676913 12.2213
140 1 25.6963 -0.145677 12.3981
141 1 25.192 -0.126393 13.2021
142 1 25.5407 0.155913 14.0501
143 1 25.3313 -0.0355854 14.9693
144 1 24.8893 0.275573 15.768
145 1 0.0944213 5.54385 -1.05413
146 1 -0.741947 5.96041 -1.29844
147 1 -1.06414 5.19875 -0.820002
148 1 -0.407461 5.3858 -0.162654
149 1 -0.568668 5.51533 0.764496
150 1 -0.365678 5.71053 1.66095
151 1 -0.531936 6.50484 2.16914
152 1 -0.519013 6.56511 3.13544
153 1 -0.350309 6.37192 4.05102
154 1 -0.191849 6.38802 4.98746
155 1 -0.3208 6.64486 5.90795
156 1 -0.0387843 6.26135 6.72924
157 1 0.357736 6.20259 7.60212
158 1 0.326427 6.07383 8.54726
159 1 1.07252 6.23027 9.12315
160 1 0.318608 6.04163 9.69168
161 1 0.24118 5.63556 10.5702
162 1 0.265221 5.76429 11.5287
163 1 0.395099 5.92607 12.4727
164 1 0.524713 5.872 13.4285
165 1 0.430492 5.6882 14.3663
166 1 1.16295 6.24791 14.6453
167 1 0.696328 5.77652 15.3591
168 1 0.621491 6.72808 15.5531
169 1 5.12546 5.17614 -1.4742
170 1 5.03801 6.11668 -1.30154
171 1 4.32857 6.41449 -0.737965
172 1 4.59954 5.52173 -0.5184
173 1 4.25958 6.03409 0.209023
174 1 4.60508 5.99657 1.08957
175 1 4.73955 6.13606 2.02473
176 1 4.83138 6.2238 2.9653
177 1 4.88204 6.25944 3.8966
178 1 4.79576 6.29209 4.85001
179 1 5.14415 5.65065 5.47991
180 1 5.02755 6.12426 6.30715
181 1 5.2774 5.71034 7.13511
182 1 5.28885 5.75407 8.08888
183 1 4.98662 6.0579 8.94337
184 1 5.00411 6.17808 9.90459
185 1 4.89212 6.20942 10.8718
186 1 4.98133 6.38883 11.8296
187 1 4.80932 6.90216 12.6169
188 1 4.30834 6.46038 13.2943
189 1 4.83829 6.2361 14.0568
190 1 5.66574 6.1695 14.5294
191 1 5.31856 5.56776 15.1948
192 1 6.10717 5.12015 15.543
193 1 10.2155 6.47004 -2.24127
194 1 9.84868 6.24337 -1.39407
195 1 10.4433 6.59748 -0.740891
196 1 9.80223 6.20171 -0.151184
197 1 10.6133 6.35154 0.362656
198 1 10.2244 6.03214 1.18195
199 1 10.285 5.94412 2.14257
200 1 9.91071 6.09968 3.03113
201 1 9.80319 6.41567 3.92794
202 1 10.0724 6.2869 4.83952
203 1 9.51771 5.87673 5.50381
204 1 9.96123 6.07061 6.33667
205 1 10.1329 6.28003 7.25387
206 1 10.5169 6.29311 8.12569
207 1 10.7371 6.26083 9.0543
208 1 10.6695 6.40231 9.98945
209 1 10.5883 6.43447 10.93
210 1 10.7413 6.71141 11.8241
211 1 10.6846 6.48408 12.7625
212 1 10.8372 5.63252 13.193
213 1 10.2671 5.9749 13.8923
214 1 10.2095 5.16224 14.3854
215 1 10.6931 5.82624 14.9063
216 1 10.6223 6.32758 15.7268
217 1 14.5896 5.91984 -1.77179
218 1 14.6861 5.93894 -0.824879
219 1 14.8984 5.09341 -0.373844
220 1 15.1035 5.86926 0.145602
221 1 15.1765 6.61048 0.733662
222 1 15.5353 5.78641 1.10288
223 1 15.2403 5.72688 2.01653
224 1 15.504 5.55209 2.9256
225 1 15.6444 5.48877 3.87449
226 1 15.557 5.39634 4.839
227 1 15.4105 5.6783 5.74875
228 1 15.4657 5.82819 6.70139
229 1 15.4528 5.69415 7.65594
230 1 15.2253 5.84635 8.57251
231 1 15.1818 5.64023 9.50064
232 1 14.8964 5.72554 10.3992
233 1 14.9311 5.76726 11.3538
234 1 14.7423 5.38328 12.207
235 1 14.8614 6.10086 12.8102
236 1 14.6136 5.24317 13.2081
237 1 14.6474 5.97542 13.8176
238 1 15.3833 6.25352 14.3562
239 1 15.1792 5.79523 15.1818
240 1 15.6427 5.58396 16.0184
241 1 21.1643 5.63046 -1.56185
242 1 20.4067 5.64949 -0.975247
243 1 20.9786 5.31757 -0.277263
244 1 20.521 6.04794 0.115715
245 1 19.7875 5.63475 0.606919
246 1 20.1742 6.21554 1.25322
247 1 20.1239 6.07848 2.20438
248 1 20.3623 5.85603 3.10039
249 1 20.2944 6.1759 4.00775
250 1 20.0951 6.14256 4.96536
251 1 20.2851 5.86473 5.87473
252 1 20.2864 5.992 6.82297
253 1 20.3988 5.45821 7.62683
254 1 20.1934 5.77414 8.52981
255 1 20.5862 5.70495 9.4249
256 1 19.9714 6.15496 10.0235
257 1 20.5679 5.89079 10.7246
258 1 19.7781 6.18572 11.2117
259 1 20.1269 5.6869 11.9749
260 1 19.9159 5.60651 12.9332
261 1 20.0128 5.84263 13.8807
262 1 19.6312 5.82276 14.7712
263 1 20.478 6.27457 14.9094
264 1 20.2928 6.7074 15.7228
265 1 25.8948 5.4153 -1.97867
266 1 26.1263 5.41532 -1.03477
267 1 25.4668 5.4525 -0.345576
268 1 26.2127 5.6888 0.212244
269 1 25.3652 6.09991 0.457182
270 1 25.3102 6.03865 1.40601
271 1 25.3643 5.58158 2.27415
272 1 25.2393 5.93045 3.16972
273 1 25.3394 6.42934 3.96843
274 1 26.1098 6.53476 4.51617
275 1 25.8616 6.45091 5.4424
276 1 25.4353 6.56596 6.29346
277 1 25.5513 6.23743 7.1935
278 1 25.5859 6.21782 8.15925
279 1 25.7796 5.98384 9.07253
280 1 25.8111 5.4791 9.90312
281 1 25.7273 5.45644 10.8693
282 1 25.4744 5.41195 11.806
283 1 24.7181 5.45455 12.3866
284 1 24.6746 5.81804 13.259
285 1 24.9558 6.14785 14.0911
286 1 25.7763 5.84096 14.4663
287 1 25.3874 6.49997 15.0636
288 1 26.012 5.93377 15.5058
289 1 -0.591194 12.7621 -1.35706
290 1 0.00144959 12.651 -0.610339
291 1 0.59617 11.9332 -0.355605
292 1 0.699258 12.3129 0.510829
293 1 -0.059134 12.8972 0.443622
294 1 0.026671 12.5299 1.31559
295 1 0.334296 12.7667 2.18533
296 1 0.223802 12.5869 3.11899
297 1 0.269323 12.8244 4.04822
298 1 -0.0278031 12.487 4.89888
299 1 0.519499 12.5437 5.69173
300 1 0.245964 12.5521 6.60988
301 1 0.261052 12.2008 7.51366
302 1 0.0989781 12.4433 8.43805
303 1 0.108348 12.4457 9.41712
304 1 0.193573 12.006 10.2859
305 1 -0.0997864 11.9005 11.2205
306 1 -0.355994 12.1417 12.1089
307 1 0.0390321 12.0975 12.9795
308 1 0.38086 11.6464 13.7486
309 1 0.378701 11.5308 14.7041
310 1 0.00705305 12.4026 14.8001
311 1 -0.0869126 12.0296 15.6979
312 1 0.00555535 11.9071 16.6516
313 1 4.60598 11.1431 -2.41273
314 1 5.18368 11.461 -1.71359
315 1 4.53876 11.1468 -1.06878
316 1 4.99419 11.8986 -0.687804
317 1 5.18926 12.1242 0.222572
318 1 4.821 11.9897 1.10112
319 1 4.81764 12.0721 2.05007
320 1 4.76231 12.2477 2.97131
321 1 4.92249 12.0018 3.8709
322 1 5.16357 11.7821 4.78277
323 1 4.89439 12.0286 5.67252
324 1 5.07708 11.9093 6.60118
325 1 5.26472 11.9956 7.51353
326 1 5.48347 12.2876 8.38791
327 1 5.35678 12.244 9.32863
328 1 5.34139 12.1065 10.2745
329 1 5.14815 11.7796 11.1354
330 1 4.98891 11.6337 12.0544
331 1 5.28518 11.6491 12.9473
332 1 4.81283 12.098 13.6351
333 1 5.67693 11.735 13.8843
334 1 5.329 12.3074 14.5773
335 1 5.24976 13.1926 14.9057
336 1 6.09414 12.9896 15.3149
337 1 9.44436 11.2829 -1.83898
338 1 8.92524 11.7796 -1.2067
339 1 9.24855 11.6547 -0.302155
340 1 9.3251 12.2251 0.474592
341 1 9.48951 11.6445 1.21904
342 1 9.96278 12.0706 1.92828
343 1 9.97962 12.0465 2.88002
344 1 9.94264 11.9913 3.82931
345 1 9.8752 12.0765 4.76706
346 1 9.59807 11.7633 5.62535
347 1 10.4998 12.0761 5.62091
348 1 10.1005 12.0393 6.50051
349 1 10.0129 12.0521 7.45051
350 1 9.85266 12.2422 8.39264
351 1 9.6716 12.4127 9.32963
352 1 10.0275 12.2911 10.2095
353 1 9.96442 12.0224 11.1225
354 1 9.60479 12.2502 11.9953
355 1 10.5178 12.0163 12.0285
356 1 10.5422 11.6112 12.899
357 1 10.23 11.591 13.7984
358 1 10.7132 11.8394 14.5907
359 1 11.3227 12.4999 14.9392
360 1 10.6442 12.9839 14.486
361 1 14.7888 12.2929 -1.23288
362 1 14.5064 11.406 -0.965609
363 1 15.0194 11.4463 -0.161062
364 1 14.5087 12.2468 0.021675
365 1 15.1472 11.9927 0.714924
366 1 14.2796 11.8136 1.04846
367 1 14.9442 11.9579 1.73859
368 1 15.079 12.1926 2.68134
369 1 15.1551 11.9032 3.61633
370 1 15.4616 11.9192 4.53786
371 1 15.587 11.9205 5.49464
372 1 15.6363 11.9866 6.44085
373 1 15.7767 12.0983 7.37948
374 1 15.8929 12.2357 8.31959
375 1 15.511 11.9201 9.15083
376 1 15.2858 12.0236 10.0804
377 1 15.027 12.0426 11.0005
378 1 15.445 11.8692 11.8591
379 1 15.3963 11.99 12.8039
380 1 14.8306 11.7709 13.5284
381 1 15.4702 12.2841 14.0558
382 1 14.9373 11.6758 14.5798
383 1 15.2946 11.6607 15.4663
384 1 15.1294 12.6038 15.6456
385 1 19.9857 11.4841 -1.95508
386 1 20.6089 11.0781 -1.35276
387 1 20.5526 11.3774 -0.432731
388 1 19.6514 11.6799 -0.279323
389 1 19.8943 11.9476 0.613434
390 1 20.2424 11.8063 1.49259
391 1 20.5956 11.6633 2.37632
392 1 20.1734 11.783 3.22852
393 1 20.33 11.7478 4.17478
394 1 20.0386 11.4547 5.03585
395 1 20.4163 11.837 5.82978
396 1 20.5281 11.4594 6.71599
397 1 19.7708 11.8985 7.10056
398 1 20.3279 11.4961 7.76049
399 1 20.4937 11.8587 8.63116
400 1 20.3449 11.9317 9.56744
401 1 20.4269 12.149 10.4998
402 1 20.2446 12.1088 11.4288
403 1 20.1372 12.1078 12.3772
404 1 20.2738 12.0534 13.3362
405 1 20.4298 11.7414 14.2454
406 1 19.6459 11.6834 14.8115
407 1 20.3612 11.7121 15.4483
408 1 20.3463 12.3226 16.2129
409 1 24.5332 11.1508 -1.75681
410 1 24.5633 11.7637 -1.01048
411 1 25.0497 11.8638 -0.165668
412 1 24.33 12.4989 -0.0219221
413 1 23.9753 12.0827 0.758976
414 1 24.6753 11.9774 1.42947
415 1 25.0737 12.4963 2.1384
416 1 24.9556 11.6925 2.65052
417 1 24.9318 12.0191 3.54661
418 1 24.7599 12.3266 4.43965
419 1 24.9835 12.2076 5.35162
420 1 24.9602 11.9417 6.27973
421 1 25.1229 11.796 7.23376
422 1 25.5174 12.2021 8.01944
423 1 25.166 12.1086 8.92343
424 1 25.3538 12.093 9.88102
425 1 25.3248 12.469 10.7566
426 1 25.4065 12.7494 11.6562
427 1 25.4497 12.3259 12.5038
428 1 25.6957 11.9026 13.3353
429 1 25.2017 11.8784 14.16
430 1 25.8619 11.9248 14.8441
431 1 25.6386 12.0225 15.7653
432 1 24.8912 11.5575 16.1453
433 1 -0.178235 18.5139 -2.31528
434 1 -0.681492 17.9528 -1.72067
435 1 0.0492614 18.317 -1.20543
436 1 0.0345241 17.8771 -0.352483
437 1 -0.276481 17.7693 0.547233
438 1 -0.339519 17.7937 1.4909
439 1 -0.544092 17.9528 2.38886
440 1 -0.398253 18.5446 3.11119
441 1 -0.650951 17.7235 3.52428
442 1 -0.366033 17.8791 4.43861
443 1 -0.14248 17.9654 5.36587
444 1 -0.0494499 18.2166 6.28299
445 1 -0.203449 18.205 7.22655
446 1 -0.195909 18.3185 8.17847
447 1 -0.267148 18.5063 9.10657
448 1 -0.0101005 18.124 9.94106
449 1 0.0175334 17.9408 10.9149
450 1 -0.276159 18.0763 11.8277
451 1 -0.166866 17.9561 12.7943
452 1 -0.430862 18.1291 13.7113
453 1 -0.0468183 18.4109 14.5594
454 1 -0.961548 18.107 14.7051
455 1 -0.312373 17.5128 15.0809
456 1 -0.601922 18.195 15.6877
457 1 4.97711 18.0667 -2.67124
458 1 5.09612 17.7683 -1.74522
459 1 4.29637 18.0666 -1.2849
460 1 4.09025 17.9073 -0.346455
461 1 5.01354 17.8855 -0.0225031
462 1 4.85617 17.7228 0.922832
463 1 5.11614 17.7047 1.87485
464 1 5.5524 17.8334 2.73874
465 1 5.59064 18.0403 3.68274
466 1 5.74695 17.8596 4.61249
467 1 5.67919 18.2241 5.51331
468 1 5.61826 17.8923 6.42616
469 1 5.4423 18.0853 7.36259
470 1 5.07068 18.1678 8.22858
471 1 4.99386 18.1184 9.17675
472 1 5.07616 18.2861 10.1253
473 1 4.49601 17.848 10.7334
474 1 5.08279 18.4608 11.1621
475 1 4.9932 18.1693 12.0552
476 1 5.52754 18.0816 12.834
477 1 5.32588 18.039 13.7673
478 1 5.34675 17.9379 14.7242
479 1 5.16434 18.7109 15.2506
480 1 5.59233 18.2145 15.9482
481 1 9.61315 17.2765 -0.243616
482 1 10.0692 17.7593 -0.939205
483 1 10.7418 18.3038 -0.527147
484 1 9.88493 18.5487 -0.146495
485 1 10.2102 17.9213 0.502038
486 1 9.59927 18.2484 1.17801
487 1 10.2313 17.6201 1.57551
488 1 9.92771 17.8792 2.46661
489 1 10.034 18.0762 3.42578
490 1 10.0423 18.2134 4.3839
491 1 10.0272 18.3083 5.33454
492 1 10.0163 18.475 6.2823
493 1 9.68347 18.2816 7.17151
494 1 9.68523 18.0946 8.12551
495 1 9.59277 17.9633 9.08558
496 1 9.96792 18.1091 9.98545
497 1 10.0612 18.3332 10.9215
498 1 9.96002 18.4499 11.8488
499 1 9.96264 18.6282 12.7703
500 1 10.6691 18.7912 13.3874
501 1 9.85929 18.8307 13.8844
502 1 10.33 19.2958 14.5765
503 1 11.1628 18.7751 14.6219
504 1 11.5872 19.1735 15.3759
505 1 15.1828 19.1866 -1.9327
506 1 15.1555 18.2768 -1.58628
507 1 15.3025 18.3885 -0.65065
508 1 15.3742 18.1454 0.267147
509 1 14.8049 17.737 0.918188
510 1 15.5575 18.2141 1.2855
511 1 15.2858 17.7681 2.06885
512 1 15.2755 17.9007 2.9982
513 1 15.6826 17.2855 3.59384
514 1 15.4103 17.7504 4.41515
515 1 15.516 17.685 5.38184
516 1 15.0177 17.754 6.21864
517 1 15.3555 17.8005 7.1224
518 1 15.5958 17.934 8.03064
519 1 15.5734 18.059 8.96651
520 1 15.9073 18.064 9.86027
521 1 15.8674 18.2328 10.8012
522 1 16.0746 18.1157 11.7304
523 1 15.458 18.4754 12.3513
524 1 15.651 17.8594 13.0605
525 1 15.8455 18.732 13.4241
526 1 15.9267 18.2352 14.2465
527 1 15.2855 17.528 14.113
528 1 14.3746 17.5463 13.7969
529 1 20.5001 17.6572 -1.91653
530 1 20.0715 17.989 -1.12472
531 1 20.6904 17.8744 -0.394188
532 1 19.9229 18.1443 0.144721
533 1 20.62 17.7928 0.697377
534 1 20.3034 18.2565 1.47984
535 1 20.4016 18.0317 2.42287
536 1 19.9777 17.5413 3.14063
537 1 20.0109 18.2213 3.80314
538 1 19.7486 18.1862 4.73663
539 1 19.9971 18.3202 5.65512
540 1 19.8037 18.5352 6.56348
541 1 19.8989 18.5796 7.52344
542 1 19.8112 18.5385 8.47682
543 1 20.0031 18.3306 9.40792
544 1 19.9762 18.3079 10.3686
545 1 19.7033 18.384 11.2806
546 1 20.3197 18.4337 12.0093
547 1 19.9798 17.8608 12.6985
548 1 20.0352 18.6958 13.1646
549 1 20.509 18.1587 13.8227
550 1 20.5616 18.4066 14.7466
551 1 20.7175 18.0875 15.6466
552 1 19.9933 17.6789 16.1108
553 1 26.3187 18.7209 -2.16962
554 1 26.1907 17.9375 -1.62101
555 1 25.2964 18.0775 -1.29932
556 1 25.3782 18.002 -0.350611
557 1 25.1341 18.1236 0.560529
558 1 24.7878 18.0129 1.44207
559 1 25.5214 17.9946 2.0538
560 1 25.2386 17.8943 2.96072
561 1 25.3467 17.7268 3.87543
562 1 25.768 17.6589 4.74371
563 1 25.7326 17.5572 5.6896
564 1 25.6289 17.7621 6.62923
565 1 26.0853 17.9902 7.44136
566 1 26.3542 17.6544 8.30925
567 1 25.8068 17.9119 9.04841
568 1 25.9793 17.3015 9.76398
569 1 25.8155 17.9692 10.4393
570 1 25.3789 17.9248 11.3114
571 1 25.2653 17.7509 12.2482
572 1 25.5342 17.4222 13.1178
573 1 25.5145 17.8387 13.9887
574 1 25.3977 17.836 14.9451
575 1 24.6784 17.8754 15.5841
576 1 25.4359 17.787 16.1802
577 1 -0.456818 25.2827 -1.77974
578 1 -0.0354253 25.1523 -0.917191
579 1 -0.409039 24.5742 -0.257379
580 1 -0.612074 24.411 0.666994
581 1 0.216983 24.6193 1.10278
582 1 0.496874 23.7103 1.24578
583 1 0.0216094 24.0992 1.99204
584 1 0.14171 24.023 2.93568
585 1 0.0701916 24.3001 3.84147
586 1 -0.038001 24.2689 4.78899
587 1 -0.0195367 24.0643 5.71812
588 1 -0.149085 24.3175 6.63744
589 1 -0.387625 24.3343 7.57808
590 1 -0.416759 24.159 8.51653
591 1 -0.525947 24.3948 9.42564
592 1 -0.429217 24.1205 10.3403
593 1 -0.882705 24.7359 10.9208
594 1 -0.659795 24.0418 11.5548
595 1 -0.588179 23.8833 12.482
596 1 -0.315861 23.5783 13.3351
597 1 0.0942621 24.1027 14.0274
598 1 -0.709937 23.9429 14.5263
599 1 -0.416915 23.9518 15.4365
600 1 0.305184 24.338 15.9577
601 1 6.55824 24.0113 -1.62066
602 1 5.71824 24.3638 -1.9077
603 1 4.96823 24.2959 -1.29339
604 1 4.82109 23.6955 -0.543017
605 1 4.94419 23.9451 0.391812
606 1 5.10265 23.8973 1.33468
607 1 5.01072 24.1263 2.27298
608 1 5.09081 24.6002 3.09557
609 1 5.49635 24.4954 3.95006
610 1 5.51947 24.3396 4.88539
611 1 5.26673 24.06 5.76897
612 1 5.37068 24.3748 6.67227
613 1 5.68317 24.1657 7.57148
614 1 5.62354 24.3896 8.52491
615 1 5.63997 23.5527 9.02881
616 1 5.7361 24.2813 9.64621
617 1 5.54829 23.5335 10.2257
618 1 5.46394 23.8105 11.1404
619 1 5.22176 23.9372 12.0668
620 1 5.19021 24.0673 13.011
621 1 4.84522 24.0026 13.9017
622 1 4.70153 24.0949 14.8463
623 1 3.89879 24.1615 15.3824
624 1 4.42868 23.3756 15.578
625 1 11.169 23.8754 -1.56751
626 1 10.538 24.2849 -0.97165
627 1 9.98951 23.6765 -0.500501
628 1 10.5846 24.0989 0.133244
629 1 9.67972 23.9342 0.415151
630 1 10.2889 23.9552 1.14263
631 1 10.2035 24.6584 1.78237
632 1 10.3548 24.3975 2.693
633 1 10.3045 24.2803 3.6426
634 1 9.77669 24.632 4.36082
635 1 9.90799 24.424 5.30297
636 1 10.0057 24.2969 6.2648
637 1 10.2578 24.2281 7.19632
638 1 10.7227 24.0263 8.00492
639 1 10.6013 23.9216 8.92683
640 1 10.5352 23.8423 9.87032
641 1 10.6098 23.7067 10.7956
642 1 10.4933 23.8446 11.7186
643 1 10.6032 22.935 12.0587
644 1 10.3218 23.5624 12.7464
645 1 9.92249 23.5401 13.6171
646 1 10.2316 23.6869 14.5199
647 1 9.55955 23.8237 15.1883
648 1 9.74892 23.9956 16.0939
649 1 15.6265 23.1049 -0.978576
650 1 15.1176 23.731 -0.459562
651 1 15.3235 24.565 -0.0242302
652 1 14.4482 24.3439 0.306566
653 1 15.0516 23.6648 0.600643
654 1 15.5671 24.351 1.03495
655 1 15.3111 23.7363 1.72123
656 1 15.1792 23.951 2.63381
657 1 15.3112 24.0332 3.57181
658 1 14.9266 23.8587 4.42903
659 1 14.9953 23.9618 5.36758
660 1 15.1596 23.8985 6.30728
661 1 15.1873 23.9319 7.26299
662 1 15.4195 24.1031 8.16502
663 1 15.5032 24.282 9.09575
664 1 15.6454 24.3352 10.0268
665 1 15.8991 23.6501 10.651
666 1 15.7165 24.5129 11.0543
667 1 15.704 24.7736 11.9754
668 1 15.3671 24.9526 12.8604
669 1 15.0751 24.6803 13.7476
670 1 15.3404 24.4447 14.6566
671 1 14.7893 23.9239 15.2416
672 1 15.1983 24.323 16.0104
673 1 20.6164 24.1513 -2.39391
674 1 20.6109 24.5349 -1.51878
675 1 20.5032 24.0865 -0.677017
676 1 21.0626 24.5698 -0.0451526
677 1 20.4134 23.993 0.349323
678 1 20.0983 24.4174 1.13662
679 1 19.9894 24.352 2.07954
680 1 20.1591 24.2351 3.01136
681 1 20.4897 24.6071 3.81719
682 1 20.7936 24.7528 4.71464
683 1 20.9453 24.677 5.64407
684 1 20.9538 24.5115 6.59704
685 1 20.7627 24.3683 7.52604
686 1 20.7305 24.1036 8.4346
687 1 20.8672 23.8181 9.34588
688 1 20.4765 23.9758 10.2127
689 1 20.2838 24.1434 11.1334
690 1 20.1465 24.1792 12.0609
691 1 20.1581 24.0788 12.9993
692 1 19.8948 24.0831 13.9073
693 1 19.9089 23.4172 14.5806
694 1 20.0404 24.2974 14.9544
695 1 19.9783 24.3489 15.9043
696 1 19.7696 23.4534 15.6218
697 1 24.4063 23.5602 -2.61601
698 1 24.9951 24.092 -2.06474
699 1 25.0444 23.5617 -1.27481
700 1 25.2641 23.7597 -0.36662
701 1 25.1974 23.5615 0.568575
702 1 25.4401 23.4513 1.4772
703 1 24.9539 24.0176 2.10025
704 1 25.3107 24.2051 2.96512
705 1 25.2548 24.1774 3.92055
706 1 25.2761 24.3591 4.87384
707 1 25.4463 24.701 5.74564
708 1 25.3521 23.9442 6.32114
709 1 25.5153 24.5454 7.05808
710 1 25.6168 24.3826 8.00261
711 1 25.6574 24.2423 8.94789
712 1 25.9107 23.9509 9.84034
713 1 25.8522 24.1114 10.8012
714 1 25.8589 23.6817 11.6739
715 1 25.4637 23.9641 12.4924
716 1 24.8233 24.2436 13.1435
717 1 25.2971 24.5954 13.8947
718 1 25.3621 24.1644 14.7503
719 1 26.2652 24.2907 15.0712
720 1 26.2443 24.7294 15.925
721 2 2.98522 2.78158 15.1335
722 2 3.45123 2.32078 15.8303
723 2 2.99776 3.01409 16.3265
724 2 3.07385 2.47602 17.116
725 2 2.80225 3.37245 17.3665
726 2 2.62163 3.32086 18.3074
727 2 2.46375 3.2164 19.2508
728 2 2.69074 3.71858 20.0406
729 2 2.25028 3.38367 20.8217
730 2 2.71167 3.56645 21.6429
731 2 2.6677 3.0657 22.4743
732 2 2.42281 3.12499 23.3876
733 2 2.12958 3.19415 24.3023
734 2 2.25967 3.07505 25.2385
735 2 2.47866 3.10306 26.1693
736 2 2.3854 3.26658 27.1161
737 2 2.43533 3.00893 28.0513
738 2 2.24227 3.32558 28.9398
739 2 2.73164 2.97975 29.693
740 2 2.08127 3.58375 30.0247
741 2 2.31603 3.06815 30.8158
742 2 2.55721 3.47159 31.6623
743 2 3.22502 3.10671 32.2411
744 2 2.61142 2.61584 32.7937
745 2 8.06345 3.1521 14.8756
746 2 7.67478 2.45861 15.4163
747 2 8.15628 2.58856 16.249
748 2 8.11936 2.3449 17.1782
749 2 7.3564 2.91895 17.1286
750 2 7.83517 3.20047 17.9018
751 2 7.72757 3.00591 18.8439
752 2 8.14754 2.96427 19.7049
753 2 7.99137 3.4869 20.4924
754 2 8.0272 3.20866 21.4041
755 2 8.23288 3.07256 22.3191
756 2 8.00088 2.90495 23.2353
757 2 7.73693 3.12127 24.1363
758 2 7.56147 3.36271 25.0425
759 2 7.62006 3.21538 25.9932
760 2 7.70039 2.90328 26.9003
761 2 7.78518 3.46278 27.6941
762 2 7.96822 3.30873 28.6288
763 2 7.52843 3.11426 29.4609
764 2 7.95026 2.96646 30.3248
765 2 7.7603 3.21396 31.2449
766 2 7.44155 3.48603 32.1267
767 2 7.40483 3.76186 33.0625
768 2 6.67697 3.16191 33.2106
769 2 12.3186 3.75902 15.1631
770 2 12.37 2.7948 15.2219
771 2 12.2957 3.08345 16.1538
772 2 12.4881 2.54051 16.9157
773 2 12.072 3.0252 17.6209
774 2 12.433 2.25789 18.0398
775 2 12.3514 2.48596 18.9706
776 2 12.6694 2.78615 19.8346
777 2 12.5233 2.79246 20.7798
778 2 12.9014 3.03012 21.6452
779 2 13.3653 3.24352 22.4634
780 2 13.7699 3.17773 23.3544
781 2 13.3677 2.90981 24.2006
782 2 13.403 2.97552 25.1699
783 2 13.3713 2.92535 26.1555
784 2 13.3285 2.87361 27.1268
785 2 12.8797 2.77372 27.9794
786 2 12.794 2.70207 28.9354
787 2 12.8691 2.7038 29.8883
788 2 12.8089 3.62211 30.1563
789 2 12.2034 3.09632 30.6799
790 2 11.7994 3.33353 31.5379
791 2 12.6109 3.48432 32.0335
792 2 12.6184 2.55956 31.7933
793 2 17.799 3.37778 14.952
794 2 16.8936 3.19161 15.2005
795 2 17.2285 3.30058 16.0904
796 2 17.2671 3.11356 17.0316
797 2 17.3801 3.414 17.9378
798 2 17.4478 2.74144 18.6267
799 2 17.6234 3.16777 19.4706
800 2 17.4024 2.4339 20.0575
801 2 17.6496 2.85509 20.909
802 2 17.6577 2.76156 21.8826
803 2 18.0363 2.83228 22.7738
804 2 18.1664 2.50269 23.6715
805 2 18.0328 2.87189 24.5597
806 2 18.5473 2.55286 25.3053
807 2 18.3966 2.34393 26.2578
808 2 18.0799 2.65551 27.1121
809 2 18.4419 2.52863 27.992
810 2 18.3664 2.40295 28.9401
811 2 18.5037 3.28856 29.3054
812 2 17.6905 3.63485 29.6798
813 2 18.1314 3.03823 30.2959
814 2 17.6999 2.43666 30.8895
815 2 17.5505 2.77774 31.7807
816 2 18.2442 3.22321 32.2566
817 2 21.9196 2.35162 14.8386
818 2 22.6546 2.6793 15.3887
819 2 22.7502 2.70167 16.3397
820 2 22.0496 2.68281 16.9941
821 2 22.8262 3.11823 17.3291
822 2 22.9553 3.06006 18.2717
823 2 23.1687 2.87824 19.1845
824 2 22.624 3.00874 19.9645
825 2 22.5089 2.73158 20.8621
826 2 22.3313 2.5335 21.7808
827 2 22.3579 2.24748 22.7199
828 2 22.209 2.90174 23.413
829 2 22.7508 2.51667 24.11
830 2 22.917 2.62608 25.0491
831 2 22.9279 2.55502 26.0091
832 2 23.0269 2.6191 26.965
833 2 22.977 2.99408 27.8584
834 2 22.6786 3.0332 28.7917
835 2 22.9069 2.64559 29.6604
836 2 22.7699 3.46684 30.1681
837 2 22.5492 2.70489 30.6976
838 2 22.8745 2.84861 31.5887
839 2 22.5435 2.85434 32.4889
840 2 22.748 3.76623 32.7543
841 2 27.234 3.94768 14.5954
842 2 27.2393 3.625 15.4896
843 2 27.8299 3.48214 16.2248
844 2 27.983 2.95085 16.9902
845 2 28.9137 3.09338 17.133
846 2 28.4507 2.79341 17.9052
847 2 28.3393 3.04827 18.8231
848 2 28.2738 3.03636 19.7857
849 2 28.0398 3.2724 20.6914
850 2 27.8891 3.40187 21.642
851 2 27.9892 3.08966 22.5522
852 2 27.5658 2.96945 23.4047
853 2 27.428 2.92096 24.3363
854 2 27.8126 2.51146 25.1251
855 2 27.7362 3.17763 25.8206
856 2 27.8277 3.16292 26.785
857 2 27.9004 3.19626 27.7357
858 2 27.5035 2.86666 28.5459
859 2 28.0054 3.35826 29.2069
860 2 27.6582 2.84331 29.9435
861 2 28.5243 2.79142 30.356
862 2 28.1038 2.56857 31.1936
863 2 27.8368 1.86613 31.8339
864 2 27.4693 2.62261 32.2872
865 2 3.40039 10.465 14.9465
866 2 3.24204 9.6099 15.3654
867 2 3.01454 8.80747 15.8307
868 2 2.67119 9.05834 16.6817
869 2 2.39732 8.84094 17.5838
870 2 2.46027 8.63397 18.5327
871 2 2.33236 8.77371 19.4905
872 2 2.43228 9.33745 20.2626
873 2 2.56695 8.94172 21.1075
874 2 2.43571 9.12247 22.0391
875 2 2.92143 8.84279 22.8344
876 2 2.97695 9.2431 23.7104
877 2 3.2266 9.45938 24.6134
878 2 2.98065 9.16799 25.4989
879 2 2.92219 9.0511 26.4444
880 2 3.37103 8.7952 27.2586
881 2 2.7605 9.1168 27.9113
882 2 3.362 8.64299 28.5041
883 2 3.2057 8.74365 29.4437
884 2 2.39775 8.66078 29.9739
885 2 1.99799 8.85069 30.837
886 2 2.79412 9.10785 31.3032
887 2 2.16417 9.20632 32.0371
888 2 2.45047 10.0874 31.7442
889 2 8.01286 8.95838 14.7341
890 2 8.23139 9.15265 15.6369
891 2 7.8698 8.80556 16.4518
892 2 8.03613 9.45048 17.1455
893 2 8.00049 9.67429 18.0759
894 2 7.21161 9.16425 18.2663
895 2 7.11833 9.57995 19.1295
896 2 7.63282 8.85705 19.5092
897 2 7.55285 8.99654 20.4703
898 2 7.6619 8.59333 21.3418
899 2 7.24636 8.68963 22.2362
900 2 7.54849 8.87719 23.136
901 2 7.21231 9.1235 24.0013
902 2 7.73389 9.05665 24.8111
903 2 7.75877 9.26048 25.756
904 2 7.64687 9.62968 26.6215
905 2 7.68821 9.80477 27.5621
906 2 7.86367 9.94012 28.4942
907 2 7.90225 10.0013 29.4492
908 2 7.9463 9.62927 30.3268
909 2 8.32237 9.04021 30.9954
910 2 7.56502 9.22005 31.5599
911 2 7.4145 9.13008 32.502
912 2 7.90486 8.92985 33.3163
913 2 13.8178 9.30032 14.5838
914 2 13.1971 9.47799 15.2882
915 2 13.6342 8.78506 15.8114
916 2 12.7529 8.98136 16.1244
917 2 12.6546 8.52774 16.9489
918 2 12.5842 8.58297 17.8916
919 2 12.8271 8.57694 18.8157
920 2 12.7503 8.43824 19.765
921 2 12.8313 8.41674 20.7067
922 2 12.7829 8.10858 21.5943
923 2 12.5317 8.3608 22.4762
924 2 12.6024 9.12748 23.0396
925 2 12.9011 8.90163 23.9231
926 2 13.0021 8.96803 24.8808
927 2 12.7391 8.6153 25.7346
928 2 12.7388 9.12215 26.5507
929 2 12.3228 8.91865 27.3846
930 2 12.185 8.71068 28.2961
931 2 11.6347 8.65651 29.0783
932 2 12.4527 9.08912 29.3621
933 2 12.6592 9.15929 30.3115
934 2 12.7071 9.34436 31.2663
935 2 12.795 8.8121 32.0633
936 2 11.9541 8.35109 32.1396
937 2 18.7359 9.81116 14.842
938 2 18.1665 9.47245 15.5316
939 2 18.6953 8.97702 16.1696
940 2 18.1979 9.25921 16.9248
941 2 17.496 9.22408 17.5781
942 2 17.3767 9.62213 18.4283
943 2 17.7842 9.12293 19.1468
944 2 17.6249 9.37508 20.0798
945 2 17.8547 9.93759 20.8459
946 2 18.0299 9.23724 21.4876
947 2 17.7454 9.29245 22.4108
948 2 17.3544 9.20209 23.2775
949 2 17.6508 9.03987 24.1785
950 2 17.6537 9.04702 25.1283
951 2 17.8048 9.1312 26.0738
952 2 17.7605 9.07769 27.0267
953 2 17.6751 9.08073 27.9813
954 2 17.5894 9.1173 28.9236
955 2 17.5532 8.73023 29.7982
956 2 17.6008 8.98578 30.7258
957 2 18.4455 8.95582 31.1756
958 2 17.7138 8.8229 31.7768
959 2 18.2696 8.77943 32.5628
960 2 17.3799 9.0506 32.798
961 2 22.2668 8.37696 14.816
962 2 23.1308 8.52279 15.2419
963 2 23.3989 9.1201 15.9383
964 2 23.7436 8.33482 16.366
965 2 23.4988 8.9361 17.0902
966 2 23.4956 9.03917 18.0547
967 2 23.0954 9.18678 18.9225
968 2 22.9594 9.30287 19.8761
969 2 22.8507 8.77872 20.6577
970 2 22.7966 9.34142 21.4197
971 2 22.4467 9.1693 22.305
972 2 22.627 8.95749 23.2438
973 2 22.683 9.06231 24.2106
974 2 22.6306 9.182 25.1785
975 2 22.5155 9.37918 26.1299
976 2 22.2147 9.50748 27.0419
977 2 22.5665 8.76005 27.5255
978 2 22.5769 9.43464 28.2201
979 2 22.7857 9.01587 29.0789
980 2 22.8416 8.9752 30.0549
981 2 23.1678 8.97225 30.9766
982 2 22.9532 8.6356 31.8613
983 2 23.6814 8.89895 32.4228
984 2 23.2326 9.67598 32.7482