LAMMPS data file for polymer chains

3280 atoms
3116 bonds

2 atom types
1 bond types

0.0 32.0 xlo xhi
0.0 32.0 ylo yhi
0.0 32.0 zlo zhi

Masses

1 1.0  # Type A
2 1.0  # Type B

Atoms # molecular

1 1 1 0.000 0.000 0.000
2 1 1 0.000 0.000 0.711
3 1 1 0.000 0.000 1.422
4 1 1 0.000 0.000 2.133
5 1 1 0.000 0.000 2.844
6 1 1 0.000 0.000 3.556
7 1 1 0.000 0.000 4.267
8 1 1 0.000 0.000 4.978
9 1 1 0.000 0.000 5.689
10 1 1 0.000 0.000 6.400
11 1 1 0.000 0.000 7.111
12 1 1 0.000 0.000 7.822
13 1 1 0.000 0.000 8.533
14 1 1 0.000 0.000 9.244
15 1 1 0.000 0.000 9.956
16 1 1 0.000 0.000 10.667
17 1 1 0.000 0.000 11.378
18 1 1 0.000 0.000 12.089
19 1 1 0.000 0.000 12.800
20 1 1 0.000 0.000 13.511
21 2 1 3.107 0.000 0.000
22 2 1 3.107 0.000 0.711
23 2 1 3.107 0.000 1.422
24 2 1 3.107 0.000 2.133
25 2 1 3.107 0.000 2.844
26 2 1 3.107 0.000 3.556
27 2 1 3.107 0.000 4.267
28 2 1 3.107 0.000 4.978
29 2 1 3.107 0.000 5.689
30 2 1 3.107 0.000 6.400
31 2 1 3.107 0.000 7.111
32 2 1 3.107 0.000 7.822
33 2 1 3.107 0.000 8.533
34 2 1 3.107 0.000 9.244
35 2 1 3.107 0.000 9.956
36 2 1 3.107 0.000 10.667
37 2 1 3.107 0.000 11.378
38 2 1 3.107 0.000 12.089
39 2 1 3.107 0.000 12.800
40 2 1 3.107 0.000 13.511
41 3 1 6.214 0.000 0.000
42 3 1 6.214 0.000 0.711
43 3 1 6.214 0.000 1.422
44 3 1 6.214 0.000 2.133
45 3 1 6.214 0.000 2.844
46 3 1 6.214 0.000 3.556
47 3 1 6.214 0.000 4.267
48 3 1 6.214 0.000 4.978
49 3 1 6.214 0.000 5.689
50 3 1 6.214 0.000 6.400
51 3 1 6.214 0.000 7.111
52 3 1 6.214 0.000 7.822
53 3 1 6.214 0.000 8.533
54 3 1 6.214 0.000 9.244
55 3 1 6.214 0.000 9.956
56 3 1 6.214 0.000 10.667
57 3 1 6.214 0.000 11.378
58 3 1 6.214 0.000 12.089
59 3 1 6.214 0.000 12.800
60 3 1 6.214 0.000 13.511
61 4 1 9.320 0.000 0.000
62 4 1 9.320 0.000 0.711
63 4 1 9.320 0.000 1.422
64 4 1 9.320 0.000 2.133
65 4 1 9.320 0.000 2.844
66 4 1 9.320 0.000 3.556
67 4 1 9.320 0.000 4.267
68 4 1 9.320 0.000 4.978
69 4 1 9.320 0.000 5.689
70 4 1 9.320 0.000 6.400
71 4 1 9.320 0.000 7.111
72 4 1 9.320 0.000 7.822
73 4 1 9.320 0.000 8.533
74 4 1 9.320 0.000 9.244
75 4 1 9.320 0.000 9.956
76 4 1 9.320 0.000 10.667
77 4 1 9.320 0.000 11.378
78 4 1 9.320 0.000 12.089
79 4 1 9.320 0.000 12.800
80 4 1 9.320 0.000 13.511
81 5 1 12.427 0.000 0.000
82 5 1 12.427 0.000 0.711
83 5 1 12.427 0.000 1.422
84 5 1 12.427 0.000 2.133
85 5 1 12.427 0.000 2.844
86 5 1 12.427 0.000 3.556
87 5 1 12.427 0.000 4.267
88 5 1 12.427 0.000 4.978
89 5 1 12.427 0.000 5.689
90 5 1 12.427 0.000 6.400
91 5 1 12.427 0.000 7.111
92 5 1 12.427 0.000 7.822
93 5 1 12.427 0.000 8.533
94 5 1 12.427 0.000 9.244
95 5 1 12.427 0.000 9.956
96 5 1 12.427 0.000 10.667
97 5 1 12.427 0.000 11.378
98 5 1 12.427 0.000 12.089
99 5 1 12.427 0.000 12.800
100 5 1 12.427 0.000 13.511
101 6 1 15.534 0.000 0.000
102 6 1 15.534 0.000 0.711
103 6 1 15.534 0.000 1.422
104 6 1 15.534 0.000 2.133
105 6 1 15.534 0.000 2.844
106 6 1 15.534 0.000 3.556
107 6 1 15.534 0.000 4.267
108 6 1 15.534 0.000 4.978
109 6 1 15.534 0.000 5.689
110 6 1 15.534 0.000 6.400
111 6 1 15.534 0.000 7.111
112 6 1 15.534 0.000 7.822
113 6 1 15.534 0.000 8.533
114 6 1 15.534 0.000 9.244
115 6 1 15.534 0.000 9.956
116 6 1 15.534 0.000 10.667
117 6 1 15.534 0.000 11.378
118 6 1 15.534 0.000 12.089
119 6 1 15.534 0.000 12.800
120 6 1 15.534 0.000 13.511
121 7 1 18.641 0.000 0.000
122 7 1 18.641 0.000 0.711
123 7 1 18.641 0.000 1.422
124 7 1 18.641 0.000 2.133
125 7 1 18.641 0.000 2.844
126 7 1 18.641 0.000 3.556
127 7 1 18.641 0.000 4.267
128 7 1 18.641 0.000 4.978
129 7 1 18.641 0.000 5.689
130 7 1 18.641 0.000 6.400
131 7 1 18.641 0.000 7.111
132 7 1 18.641 0.000 7.822
133 7 1 18.641 0.000 8.533
134 7 1 18.641 0.000 9.244
135 7 1 18.641 0.000 9.956
136 7 1 18.641 0.000 10.667
137 7 1 18.641 0.000 11.378
138 7 1 18.641 0.000 12.089
139 7 1 18.641 0.000 12.800
140 7 1 18.641 0.000 13.511
141 8 1 21.748 0.000 0.000
142 8 1 21.748 0.000 0.711
143 8 1 21.748 0.000 1.422
144 8 1 21.748 0.000 2.133
145 8 1 21.748 0.000 2.844
146 8 1 21.748 0.000 3.556
147 8 1 21.748 0.000 4.267
148 8 1 21.748 0.000 4.978
149 8 1 21.748 0.000 5.689
150 8 1 21.748 0.000 6.400
151 8 1 21.748 0.000 7.111
152 8 1 21.748 0.000 7.822
153 8 1 21.748 0.000 8.533
154 8 1 21.748 0.000 9.244
155 8 1 21.748 0.000 9.956
156 8 1 21.748 0.000 10.667
157 8 1 21.748 0.000 11.378
158 8 1 21.748 0.000 12.089
159 8 1 21.748 0.000 12.800
160 8 1 21.748 0.000 13.511
161 9 1 24.854 0.000 0.000
162 9 1 24.854 0.000 0.711
163 9 1 24.854 0.000 1.422
164 9 1 24.854 0.000 2.133
165 9 1 24.854 0.000 2.844
166 9 1 24.854 0.000 3.556
167 9 1 24.854 0.000 4.267
168 9 1 24.854 0.000 4.978
169 9 1 24.854 0.000 5.689
170 9 1 24.854 0.000 6.400
171 9 1 24.854 0.000 7.111
172 9 1 24.854 0.000 7.822
173 9 1 24.854 0.000 8.533
174 9 1 24.854 0.000 9.244
175 9 1 24.854 0.000 9.956
176 9 1 24.854 0.000 10.667
177 9 1 24.854 0.000 11.378
178 9 1 24.854 0.000 12.089
179 9 1 24.854 0.000 12.800
180 9 1 24.854 0.000 13.511
181 10 1 27.961 0.000 0.000
182 10 1 27.961 0.000 0.711
183 10 1 27.961 0.000 1.422
184 10 1 27.961 0.000 2.133
185 10 1 27.961 0.000 2.844
186 10 1 27.961 0.000 3.556
187 10 1 27.961 0.000 4.267
188 10 1 27.961 0.000 4.978
189 10 1 27.961 0.000 5.689
190 10 1 27.961 0.000 6.400
191 10 1 27.961 0.000 7.111
192 10 1 27.961 0.000 7.822
193 10 1 27.961 0.000 8.533
194 10 1 27.961 0.000 9.244
195 10 1 27.961 0.000 9.956
196 10 1 27.961 0.000 10.667
197 10 1 27.961 0.000 11.378
198 10 1 27.961 0.000 12.089
199 10 1 27.961 0.000 12.800
200 10 1 27.961 0.000 13.511
201 11 1 0.000 3.441 0.000
202 11 1 0.000 3.441 0.711
203 11 1 0.000 3.441 1.422
204 11 1 0.000 3.441 2.133
205 11 1 0.000 3.441 2.844
206 11 1 0.000 3.441 3.556
207 11 1 0.000 3.441 4.267
208 11 1 0.000 3.441 4.978
209 11 1 0.000 3.441 5.689
210 11 1 0.000 3.441 6.400
211 11 1 0.000 3.441 7.111
212 11 1 0.000 3.441 7.822
213 11 1 0.000 3.441 8.533
214 11 1 0.000 3.441 9.244
215 11 1 0.000 3.441 9.956
216 11 1 0.000 3.441 10.667
217 11 1 0.000 3.441 11.378
218 11 1 0.000 3.441 12.089
219 11 1 0.000 3.441 12.800
220 11 1 0.000 3.441 13.511
221 12 1 3.107 3.441 0.000
222 12 1 3.107 3.441 0.711
223 12 1 3.107 3.441 1.422
224 12 1 3.107 3.441 2.133
225 12 1 3.107 3.441 2.844
226 12 1 3.107 3.441 3.556
227 12 1 3.107 3.441 4.267
228 12 1 3.107 3.441 4.978
229 12 1 3.107 3.441 5.689
230 12 1 3.107 3.441 6.400
231 12 1 3.107 3.441 7.111
232 12 1 3.107 3.441 7.822
233 12 1 3.107 3.441 8.533
234 12 1 3.107 3.441 9.244
235 12 1 3.107 3.441 9.956
236 12 1 3.107 3.441 10.667
237 12 1 3.107 3.441 11.378
238 12 1 3.107 3.441 12.089
239 12 1 3.107 3.441 12.800
240 12 1 3.107 3.441 13.511
241 13 1 6.214 3.441 0.000
242 13 1 6.214 3.441 0.711
243 13 1 6.214 3.441 1.422
244 13 1 6.214 3.441 2.133
245 13 1 6.214 3.441 2.844
246 13 1 6.214 3.441 3.556
247 13 1 6.214 3.441 4.267
248 13 1 6.214 3.441 4.978
249 13 1 6.214 3.441 5.689
250 13 1 6.214 3.441 6.400
251 13 1 6.214 3.441 7.111
252 13 1 6.214 3.441 7.822
253 13 1 6.214 3.441 8.533
254 13 1 6.214 3.441 9.244
255 13 1 6.214 3.441 9.956
256 13 1 6.214 3.441 10.667
257 13 1 6.214 3.441 11.378
258 13 1 6.214 3.441 12.089
259 13 1 6.214 3.441 12.800
260 13 1 6.214 3.441 13.511
261 14 1 9.320 3.441 0.000
262 14 1 9.320 3.441 0.711
263 14 1 9.320 3.441 1.422
264 14 1 9.320 3.441 2.133
265 14 1 9.320 3.441 2.844
266 14 1 9.320 3.441 3.556
267 14 1 9.320 3.441 4.267
268 14 1 9.320 3.441 4.978
269 14 1 9.320 3.441 5.689
270 14 1 9.320 3.441 6.400
271 14 1 9.320 3.441 7.111
272 14 1 9.320 3.441 7.822
273 14 1 9.320 3.441 8.533
274 14 1 9.320 3.441 9.244
275 14 1 9.320 3.441 9.956
276 14 1 9.320 3.441 10.667
277 14 1 9.320 3.441 11.378
278 14 1 9.320 3.441 12.089
279 14 1 9.320 3.441 12.800
280 14 1 9.320 3.441 13.511
281 15 1 12.427 3.441 0.000
282 15 1 12.427 3.441 0.711
283 15 1 12.427 3.441 1.422
284 15 1 12.427 3.441 2.133
285 15 1 12.427 3.441 2.844
286 15 1 12.427 3.441 3.556
287 15 1 12.427 3.441 4.267
288 15 1 12.427 3.441 4.978
289 15 1 12.427 3.441 5.689
290 15 1 12.427 3.441 6.400
291 15 1 12.427 3.441 7.111
292 15 1 12.427 3.441 7.822
293 15 1 12.427 3.441 8.533
294 15 1 12.427 3.441 9.244
295 15 1 12.427 3.441 9.956
296 15 1 12.427 3.441 10.667
297 15 1 12.427 3.441 11.378
298 15 1 12.427 3.441 12.089
299 15 1 12.427 3.441 12.800
300 15 1 12.427 3.441 13.511
301 16 1 15.534 3.441 0.000
302 16 1 15.534 3.441 0.711
303 16 1 15.534 3.441 1.422
304 16 1 15.534 3.441 2.133
305 16 1 15.534 3.441 2.844
306 16 1 15.534 3.441 3.556
307 16 1 15.534 3.441 4.267
308 16 1 15.534 3.441 4.978
309 16 1 15.534 3.441 5.689
310 16 1 15.534 3.441 6.400
311 16 1 15.534 3.441 7.111
312 16 1 15.534 3.441 7.822
313 16 1 15.534 3.441 8.533
314 16 1 15.534 3.441 9.244
315 16 1 15.534 3.441 9.956
316 16 1 15.534 3.441 10.667
317 16 1 15.534 3.441 11.378
318 16 1 15.534 3.441 12.089
319 16 1 15.534 3.441 12.800
320 16 1 15.534 3.441 13.511
321 17 1 18.641 3.441 0.000
322 17 1 18.641 3.441 0.711
323 17 1 18.641 3.441 1.422
324 17 1 18.641 3.441 2.133
325 17 1 18.641 3.441 2.844
326 17 1 18.641 3.441 3.556
327 17 1 18.641 3.441 4.267
328 17 1 18.641 3.441 4.978
329 17 1 18.641 3.441 5.689
330 17 1 18.641 3.441 6.400
331 17 1 18.641 3.441 7.111
332 17 1 18.641 3.441 7.822
333 17 1 18.641 3.441 8.533
334 17 1 18.641 3.441 9.244
335 17 1 18.641 3.441 9.956
336 17 1 18.641 3.441 10.667
337 17 1 18.641 3.441 11.378
338 17 1 18.641 3.441 12.089
339 17 1 18.641 3.441 12.800
340 17 1 18.641 3.441 13.511
341 18 1 21.748 3.441 0.000
342 18 1 21.748 3.441 0.711
343 18 1 21.748 3.441 1.422
344 18 1 21.748 3.441 2.133
345 18 1 21.748 3.441 2.844
346 18 1 21.748 3.441 3.556
347 18 1 21.748 3.441 4.267
348 18 1 21.748 3.441 4.978
349 18 1 21.748 3.441 5.689
350 18 1 21.748 3.441 6.400
351 18 1 21.748 3.441 7.111
352 18 1 21.748 3.441 7.822
353 18 1 21.748 3.441 8.533
354 18 1 21.748 3.441 9.244
355 18 1 21.748 3.441 9.956
356 18 1 21.748 3.441 10.667
357 18 1 21.748 3.441 11.378
358 18 1 21.748 3.441 12.089
359 18 1 21.748 3.441 12.800
360 18 1 21.748 3.441 13.511
361 19 1 24.854 3.441 0.000
362 19 1 24.854 3.441 0.711
363 19 1 24.854 3.441 1.422
364 19 1 24.854 3.441 2.133
365 19 1 24.854 3.441 2.844
366 19 1 24.854 3.441 3.556
367 19 1 24.854 3.441 4.267
368 19 1 24.854 3.441 4.978
369 19 1 24.854 3.441 5.689
370 19 1 24.854 3.441 6.400
371 19 1 24.854 3.441 7.111
372 19 1 24.854 3.441 7.822
373 19 1 24.854 3.441 8.533
374 19 1 24.854 3.441 9.244
375 19 1 24.854 3.441 9.956
376 19 1 24.854 3.441 10.667
377 19 1 24.854 3.441 11.378
378 19 1 24.854 3.441 12.089
379 19 1 24.854 3.441 12.800
380 19 1 24.854 3.441 13.511
381 20 1 27.961 3.441 0.000
382 20 1 27.961 3.441 0.711
383 20 1 27.961 3.441 1.422
384 20 1 27.961 3.441 2.133
385 20 1 27.961 3.441 2.844
386 20 1 27.961 3.441 3.556
387 20 1 27.961 3.441 4.267
388 20 1 27.961 3.441 4.978
389 20 1 27.961 3.441 5.689
390 20 1 27.961 3.441 6.400
391 20 1 27.961 3.441 7.111
392 20 1 27.961 3.441 7.822
393 20 1 27.961 3.441 8.533
394 20 1 27.961 3.441 9.244
395 20 1 27.961 3.441 9.956
396 20 1 27.961 3.441 10.667
397 20 1 27.961 3.441 11.378
398 20 1 27.961 3.441 12.089
399 20 1 27.961 3.441 12.800
400 20 1 27.961 3.441 13.511
401 21 1 0.000 6.882 0.000
402 21 1 0.000 6.882 0.711
403 21 1 0.000 6.882 1.422
404 21 1 0.000 6.882 2.133
405 21 1 0.000 6.882 2.844
406 21 1 0.000 6.882 3.556
407 21 1 0.000 6.882 4.267
408 21 1 0.000 6.882 4.978
409 21 1 0.000 6.882 5.689
410 21 1 0.000 6.882 6.400
411 21 1 0.000 6.882 7.111
412 21 1 0.000 6.882 7.822
413 21 1 0.000 6.882 8.533
414 21 1 0.000 6.882 9.244
415 21 1 0.000 6.882 9.956
416 21 1 0.000 6.882 10.667
417 21 1 0.000 6.882 11.378
418 21 1 0.000 6.882 12.089
419 21 1 0.000 6.882 12.800
420 21 1 0.000 6.882 13.511
421 22 1 3.107 6.882 0.000
422 22 1 3.107 6.882 0.711
423 22 1 3.107 6.882 1.422
424 22 1 3.107 6.882 2.133
425 22 1 3.107 6.882 2.844
426 22 1 3.107 6.882 3.556
427 22 1 3.107 6.882 4.267
428 22 1 3.107 6.882 4.978
429 22 1 3.107 6.882 5.689
430 22 1 3.107 6.882 6.400
431 22 1 3.107 6.882 7.111
432 22 1 3.107 6.882 7.822
433 22 1 3.107 6.882 8.533
434 22 1 3.107 6.882 9.244
435 22 1 3.107 6.882 9.956
436 22 1 3.107 6.882 10.667
437 22 1 3.107 6.882 11.378
438 22 1 3.107 6.882 12.089
439 22 1 3.107 6.882 12.800
440 22 1 3.107 6.882 13.511
441 23 1 6.214 6.882 0.000
442 23 1 6.214 6.882 0.711
443 23 1 6.214 6.882 1.422
444 23 1 6.214 6.882 2.133
445 23 1 6.214 6.882 2.844
446 23 1 6.214 6.882 3.556
447 23 1 6.214 6.882 4.267
448 23 1 6.214 6.882 4.978
449 23 1 6.214 6.882 5.689
450 23 1 6.214 6.882 6.400
451 23 1 6.214 6.882 7.111
452 23 1 6.214 6.882 7.822
453 23 1 6.214 6.882 8.533
454 23 1 6.214 6.882 9.244
455 23 1 6.214 6.882 9.956
456 23 1 6.214 6.882 10.667
457 23 1 6.214 6.882 11.378
458 23 1 6.214 6.882 12.089
459 23 1 6.214 6.882 12.800
460 23 1 6.214 6.882 13.511
461 24 1 9.320 6.882 0.000
462 24 1 9.320 6.882 0.711
463 24 1 9.320 6.882 1.422
464 24 1 9.320 6.882 2.133
465 24 1 9.320 6.882 2.844
466 24 1 9.320 6.882 3.556
467 24 1 9.320 6.882 4.267
468 24 1 9.320 6.882 4.978
469 24 1 9.320 6.882 5.689
470 24 1 9.320 6.882 6.400
471 24 1 9.320 6.882 7.111
472 24 1 9.320 6.882 7.822
473 24 1 9.320 6.882 8.533
474 24 1 9.320 6.882 9.244
475 24 1 9.320 6.882 9.956
476 24 1 9.320 6.882 10.667
477 24 1 9.320 6.882 11.378
478 24 1 9.320 6.882 12.089
479 24 1 9.320 6.882 12.800
480 24 1 9.320 6.882 13.511
481 25 1 12.427 6.882 0.000
482 25 1 12.427 6.882 0.711
483 25 1 12.427 6.882 1.422
484 25 1 12.427 6.882 2.133
485 25 1 12.427 6.882 2.844
486 25 1 12.427 6.882 3.556
487 25 1 12.427 6.882 4.267
488 25 1 12.427 6.882 4.978
489 25 1 12.427 6.882 5.689
490 25 1 12.427 6.882 6.400
491 25 1 12.427 6.882 7.111
492 25 1 12.427 6.882 7.822
493 25 1 12.427 6.882 8.533
494 25 1 12.427 6.882 9.244
495 25 1 12.427 6.882 9.956
496 25 1 12.427 6.882 10.667
497 25 1 12.427 6.882 11.378
498 25 1 12.427 6.882 12.089
499 25 1 12.427 6.882 12.800
500 25 1 12.427 6.882 13.511
501 26 1 15.534 6.882 0.000
502 26 1 15.534 6.882 0.711
503 26 1 15.534 6.882 1.422
504 26 1 15.534 6.882 2.133
505 26 1 15.534 6.882 2.844
506 26 1 15.534 6.882 3.556
507 26 1 15.534 6.882 4.267
508 26 1 15.534 6.882 4.978
509 26 1 15.534 6.882 5.689
510 26 1 15.534 6.882 6.400
511 26 1 15.534 6.882 7.111
512 26 1 15.534 6.882 7.822
513 26 1 15.534 6.882 8.533
514 26 1 15.534 6.882 9.244
515 26 1 15.534 6.882 9.956
516 26 1 15.534 6.882 10.667
517 26 1 15.534 6.882 11.378
518 26 1 15.534 6.882 12.089
519 26 1 15.534 6.882 12.800
520 26 1 15.534 6.882 13.511
521 27 1 18.641 6.882 0.000
522 27 1 18.641 6.882 0.711
523 27 1 18.641 6.882 1.422
524 27 1 18.641 6.882 2.133
525 27 1 18.641 6.882 2.844
526 27 1 18.641 6.882 3.556
527 27 1 18.641 6.882 4.267
528 27 1 18.641 6.882 4.978
529 27 1 18.641 6.882 5.689
530 27 1 18.641 6.882 6.400
531 27 1 18.641 6.882 7.111
532 27 1 18.641 6.882 7.822
533 27 1 18.641 6.882 8.533
534 27 1 18.641 6.882 9.244
535 27 1 18.641 6.882 9.956
536 27 1 18.641 6.882 10.667
537 27 1 18.641 6.882 11.378
538 27 1 18.641 6.882 12.089
539 27 1 18.641 6.882 12.800
540 27 1 18.641 6.882 13.511
541 28 1 21.748 6.882 0.000
542 28 1 21.748 6.882 0.711
543 28 1 21.748 6.882 1.422
544 28 1 21.748 6.882 2.133
545 28 1 21.748 6.882 2.844
546 28 1 21.748 6.882 3.556
547 28 1 21.748 6.882 4.267
548 28 1 21.748 6.882 4.978
549 28 1 21.748 6.882 5.689
550 28 1 21.748 6.882 6.400
551 28 1 21.748 6.882 7.111
552 28 1 21.748 6.882 7.822
553 28 1 21.748 6.882 8.533
554 28 1 21.748 6.882 9.244
555 28 1 21.748 6.882 9.956
556 28 1 21.748 6.882 10.667
557 28 1 21.748 6.882 11.378
558 28 1 21.748 6.882 12.089
559 28 1 21.748 6.882 12.800
560 28 1 21.748 6.882 13.511
561 29 1 24.854 6.882 0.000
562 29 1 24.854 6.882 0.711
563 29 1 24.854 6.882 1.422
564 29 1 24.854 6.882 2.133
565 29 1 24.854 6.882 2.844
566 29 1 24.854 6.882 3.556
567 29 1 24.854 6.882 4.267
568 29 1 24.854 6.882 4.978
569 29 1 24.854 6.882 5.689
570 29 1 24.854 6.882 6.400
571 29 1 24.854 6.882 7.111
572 29 1 24.854 6.882 7.822
573 29 1 24.854 6.882 8.533
574 29 1 24.854 6.882 9.244
575 29 1 24.854 6.882 9.956
576 29 1 24.854 6.882 10.667
577 29 1 24.854 6.882 11.378
578 29 1 24.854 6.882 12.089
579 29 1 24.854 6.882 12.800
580 29 1 24.854 6.882 13.511
581 30 1 27.961 6.882 0.000
582 30 1 27.961 6.882 0.711
583 30 1 27.961 6.882 1.422
584 30 1 27.961 6.882 2.133
585 30 1 27.961 6.882 2.844
586 30 1 27.961 6.882 3.556
587 30 1 27.961 6.882 4.267
588 30 1 27.961 6.882 4.978
589 30 1 27.961 6.882 5.689
590 30 1 27.961 6.882 6.400
591 30 1 27.961 6.882 7.111
592 30 1 27.961 6.882 7.822
593 30 1 27.961 6.882 8.533
594 30 1 27.961 6.882 9.244
595 30 1 27.961 6.882 9.956
596 30 1 27.961 6.882 10.667
597 30 1 27.961 6.882 11.378
598 30 1 27.961 6.882 12.089
599 30 1 27.961 6.882 12.800
600 30 1 27.961 6.882 13.511
601 31 1 0.000 10.323 0.000
602 31 1 0.000 10.323 0.711
603 31 1 0.000 10.323 1.422
604 31 1 0.000 10.323 2.133
605 31 1 0.000 10.323 2.844
606 31 1 0.000 10.323 3.556
607 31 1 0.000 10.323 4.267
608 31 1 0.000 10.323 4.978
609 31 1 0.000 10.323 5.689
610 31 1 0.000 10.323 6.400
611 31 1 0.000 10.323 7.111
612 31 1 0.000 10.323 7.822
613 31 1 0.000 10.323 8.533
614 31 1 0.000 10.323 9.244
615 31 1 0.000 10.323 9.956
616 31 1 0.000 10.323 10.667
617 31 1 0.000 10.323 11.378
618 31 1 0.000 10.323 12.089
619 31 1 0.000 10.323 12.800
620 31 1 0.000 10.323 13.511
621 32 1 3.107 10.323 0.000
622 32 1 3.107 10.323 0.711
623 32 1 3.107 10.323 1.422
624 32 1 3.107 10.323 2.133
625 32 1 3.107 10.323 2.844
626 32 1 3.107 10.323 3.556
627 32 1 3.107 10.323 4.267
628 32 1 3.107 10.323 4.978
629 32 1 3.107 10.323 5.689
630 32 1 3.107 10.323 6.400
631 32 1 3.107 10.323 7.111
632 32 1 3.107 10.323 7.822
633 32 1 3.107 10.323 8.533
634 32 1 3.107 10.323 9.244
635 32 1 3.107 10.323 9.956
636 32 1 3.107 10.323 10.667
637 32 1 3.107 10.323 11.378
638 32 1 3.107 10.323 12.089
639 32 1 3.107 10.323 12.800
640 32 1 3.107 10.323 13.511
641 33 1 6.214 10.323 0.000
642 33 1 6.214 10.323 0.711
643 33 1 6.214 10.323 1.422
644 33 1 6.214 10.323 2.133
645 33 1 6.214 10.323 2.844
646 33 1 6.214 10.323 3.556
647 33 1 6.214 10.323 4.267
648 33 1 6.214 10.323 4.978
649 33 1 6.214 10.323 5.689
650 33 1 6.214 10.323 6.400
651 33 1 6.214 10.323 7.111
652 33 1 6.214 10.323 7.822
653 33 1 6.214 10.323 8.533
654 33 1 6.214 10.323 9.244
655 33 1 6.214 10.323 9.956
656 33 1 6.214 10.323 10.667
657 33 1 6.214 10.323 11.378
658 33 1 6.214 10.323 12.089
659 33 1 6.214 10.323 12.800
660 33 1 6.214 10.323 13.511
661 34 1 9.320 10.323 0.000
662 34 1 9.320 10.323 0.711
663 34 1 9.320 10.323 1.422
664 34 1 9.320 10.323 2.133
665 34 1 9.320 10.323 2.844
666 34 1 9.320 10.323 3.556
667 34 1 9.320 10.323 4.267
668 34 1 9.320 10.323 4.978
669 34 1 9.320 10.323 5.689
670 34 1 9.320 10.323 6.400
671 34 1 9.320 10.323 7.111
672 34 1 9.320 10.323 7.822
673 34 1 9.320 10.323 8.533
674 34 1 9.320 10.323 9.244
675 34 1 9.320 10.323 9.956
676 34 1 9.320 10.323 10.667
677 34 1 9.320 10.323 11.378
678 34 1 9.320 10.323 12.089
679 34 1 9.320 10.323 12.800
680 34 1 9.320 10.323 13.511
681 35 1 12.427 10.323 0.000
682 35 1 12.427 10.323 0.711
683 35 1 12.427 10.323 1.422
684 35 1 12.427 10.323 2.133
685 35 1 12.427 10.323 2.844
686 35 1 12.427 10.323 3.556
687 35 1 12.427 10.323 4.267
688 35 1 12.427 10.323 4.978
689 35 1 12.427 10.323 5.689
690 35 1 12.427 10.323 6.400
691 35 1 12.427 10.323 7.111
692 35 1 12.427 10.323 7.822
693 35 1 12.427 10.323 8.533
694 35 1 12.427 10.323 9.244
695 35 1 12.427 10.323 9.956
696 35 1 12.427 10.323 10.667
697 35 1 12.427 10.323 11.378
698 35 1 12.427 10.323 12.089
699 35 1 12.427 10.323 12.800
700 35 1 12.427 10.323 13.511
701 36 1 15.534 10.323 0.000
702 36 1 15.534 10.323 0.711
703 36 1 15.534 10.323 1.422
704 36 1 15.534 10.323 2.133
705 36 1 15.534 10.323 2.844
706 36 1 15.534 10.323 3.556
707 36 1 15.534 10.323 4.267
708 36 1 15.534 10.323 4.978
709 36 1 15.534 10.323 5.689
710 36 1 15.534 10.323 6.400
711 36 1 15.534 10.323 7.111
712 36 1 15.534 10.323 7.822
713 36 1 15.534 10.323 8.533
714 36 1 15.534 10.323 9.244
715 36 1 15.534 10.323 9.956
716 36 1 15.534 10.323 10.667
717 36 1 15.534 10.323 11.378
718 36 1 15.534 10.323 12.089
719 36 1 15.534 10.323 12.800
720 36 1 15.534 10.323 13.511
721 37 1 18.641 10.323 0.000
722 37 1 18.641 10.323 0.711
723 37 1 18.641 10.323 1.422
724 37 1 18.641 10.323 2.133
725 37 1 18.641 10.323 2.844
726 37 1 18.641 10.323 3.556
727 37 1 18.641 10.323 4.267
728 37 1 18.641 10.323 4.978
729 37 1 18.641 10.323 5.689
730 37 1 18.641 10.323 6.400
731 37 1 18.641 10.323 7.111
732 37 1 18.641 10.323 7.822
733 37 1 18.641 10.323 8.533
734 37 1 18.641 10.323 9.244
735 37 1 18.641 10.323 9.956
736 37 1 18.641 10.323 10.667
737 37 1 18.641 10.323 11.378
738 37 1 18.641 10.323 12.089
739 37 1 18.641 10.323 12.800
740 37 1 18.641 10.323 13.511
741 38 1 21.748 10.323 0.000
742 38 1 21.748 10.323 0.711
743 38 1 21.748 10.323 1.422
744 38 1 21.748 10.323 2.133
745 38 1 21.748 10.323 2.844
746 38 1 21.748 10.323 3.556
747 38 1 21.748 10.323 4.267
748 38 1 21.748 10.323 4.978
749 38 1 21.748 10.323 5.689
750 38 1 21.748 10.323 6.400
751 38 1 21.748 10.323 7.111
752 38 1 21.748 10.323 7.822
753 38 1 21.748 10.323 8.533
754 38 1 21.748 10.323 9.244
755 38 1 21.748 10.323 9.956
756 38 1 21.748 10.323 10.667
757 38 1 21.748 10.323 11.378
758 38 1 21.748 10.323 12.089
759 38 1 21.748 10.323 12.800
760 38 1 21.748 10.323 13.511
761 39 1 24.854 10.323 0.000
762 39 1 24.854 10.323 0.711
763 39 1 24.854 10.323 1.422
764 39 1 24.854 10.323 2.133
765 39 1 24.854 10.323 2.844
766 39 1 24.854 10.323 3.556
767 39 1 24.854 10.323 4.267
768 39 1 24.854 10.323 4.978
769 39 1 24.854 10.323 5.689
770 39 1 24.854 10.323 6.400
771 39 1 24.854 10.323 7.111
772 39 1 24.854 10.323 7.822
773 39 1 24.854 10.323 8.533
774 39 1 24.854 10.323 9.244
775 39 1 24.854 10.323 9.956
776 39 1 24.854 10.323 10.667
777 39 1 24.854 10.323 11.378
778 39 1 24.854 10.323 12.089
779 39 1 24.854 10.323 12.800
780 39 1 24.854 10.323 13.511
781 40 1 27.961 10.323 0.000
782 40 1 27.961 10.323 0.711
783 40 1 27.961 10.323 1.422
784 40 1 27.961 10.323 2.133
785 40 1 27.961 10.323 2.844
786 40 1 27.961 10.323 3.556
787 40 1 27.961 10.323 4.267
788 40 1 27.961 10.323 4.978
789 40 1 27.961 10.323 5.689
790 40 1 27.961 10.323 6.400
791 40 1 27.961 10.323 7.111
792 40 1 27.961 10.323 7.822
793 40 1 27.961 10.323 8.533
794 40 1 27.961 10.323 9.244
795 40 1 27.961 10.323 9.956
796 40 1 27.961 10.323 10.667
797 40 1 27.961 10.323 11.378
798 40 1 27.961 10.323 12.089
799 40 1 27.961 10.323 12.800
800 40 1 27.961 10.323 13.511
801 41 1 0.000 13.763 0.000
802 41 1 0.000 13.763 0.711
803 41 1 0.000 13.763 1.422
804 41 1 0.000 13.763 2.133
805 41 1 0.000 13.763 2.844
806 41 1 0.000 13.763 3.556
807 41 1 0.000 13.763 4.267
808 41 1 0.000 13.763 4.978
809 41 1 0.000 13.763 5.689
810 41 1 0.000 13.763 6.400
811 41 1 0.000 13.763 7.111
812 41 1 0.000 13.763 7.822
813 41 1 0.000 13.763 8.533
814 41 1 0.000 13.763 9.244
815 41 1 0.000 13.763 9.956
816 41 1 0.000 13.763 10.667
817 41 1 0.000 13.763 11.378
818 41 1 0.000 13.763 12.089
819 41 1 0.000 13.763 12.800
820 41 1 0.000 13.763 13.511
821 42 1 3.107 13.763 0.000
822 42 1 3.107 13.763 0.711
823 42 1 3.107 13.763 1.422
824 42 1 3.107 13.763 2.133
825 42 1 3.107 13.763 2.844
826 42 1 3.107 13.763 3.556
827 42 1 3.107 13.763 4.267
828 42 1 3.107 13.763 4.978
829 42 1 3.107 13.763 5.689
830 42 1 3.107 13.763 6.400
831 42 1 3.107 13.763 7.111
832 42 1 3.107 13.763 7.822
833 42 1 3.107 13.763 8.533
834 42 1 3.107 13.763 9.244
835 42 1 3.107 13.763 9.956
836 42 1 3.107 13.763 10.667
837 42 1 3.107 13.763 11.378
838 42 1 3.107 13.763 12.089
839 42 1 3.107 13.763 12.800
840 42 1 3.107 13.763 13.511
841 43 1 6.214 13.763 0.000
842 43 1 6.214 13.763 0.711
843 43 1 6.214 13.763 1.422
844 43 1 6.214 13.763 2.133
845 43 1 6.214 13.763 2.844
846 43 1 6.214 13.763 3.556
847 43 1 6.214 13.763 4.267
848 43 1 6.214 13.763 4.978
849 43 1 6.214 13.763 5.689
850 43 1 6.214 13.763 6.400
851 43 1 6.214 13.763 7.111
852 43 1 6.214 13.763 7.822
853 43 1 6.214 13.763 8.533
854 43 1 6.214 13.763 9.244
855 43 1 6.214 13.763 9.956
856 43 1 6.214 13.763 10.667
857 43 1 6.214 13.763 11.378
858 43 1 6.214 13.763 12.089
859 43 1 6.214 13.763 12.800
860 43 1 6.214 13.763 13.511
861 44 1 9.320 13.763 0.000
862 44 1 9.320 13.763 0.711
863 44 1 9.320 13.763 1.422
864 44 1 9.320 13.763 2.133
865 44 1 9.320 13.763 2.844
866 44 1 9.320 13.763 3.556
867 44 1 9.320 13.763 4.267
868 44 1 9.320 13.763 4.978
869 44 1 9.320 13.763 5.689
870 44 1 9.320 13.763 6.400
871 44 1 9.320 13.763 7.111
872 44 1 9.320 13.763 7.822
873 44 1 9.320 13.763 8.533
874 44 1 9.320 13.763 9.244
875 44 1 9.320 13.763 9.956
876 44 1 9.320 13.763 10.667
877 44 1 9.320 13.763 11.378
878 44 1 9.320 13.763 12.089
879 44 1 9.320 13.763 12.800
880 44 1 9.320 13.763 13.511
881 45 1 12.427 13.763 0.000
882 45 1 12.427 13.763 0.711
883 45 1 12.427 13.763 1.422
884 45 1 12.427 13.763 2.133
885 45 1 12.427 13.763 2.844
886 45 1 12.427 13.763 3.556
887 45 1 12.427 13.763 4.267
888 45 1 12.427 13.763 4.978
889 45 1 12.427 13.763 5.689
890 45 1 12.427 13.763 6.400
891 45 1 12.427 13.763 7.111
892 45 1 12.427 13.763 7.822
893 45 1 12.427 13.763 8.533
894 45 1 12.427 13.763 9.244
895 45 1 12.427 13.763 9.956
896 45 1 12.427 13.763 10.667
897 45 1 12.427 13.763 11.378
898 45 1 12.427 13.763 12.089
899 45 1 12.427 13.763 12.800
900 45 1 12.427 13.763 13.511
901 46 1 15.534 13.763 0.000
902 46 1 15.534 13.763 0.711
903 46 1 15.534 13.763 1.422
904 46 1 15.534 13.763 2.133
905 46 1 15.534 13.763 2.844
906 46 1 15.534 13.763 3.556
907 46 1 15.534 13.763 4.267
908 46 1 15.534 13.763 4.978
909 46 1 15.534 13.763 5.689
910 46 1 15.534 13.763 6.400
911 46 1 15.534 13.763 7.111
912 46 1 15.534 13.763 7.822
913 46 1 15.534 13.763 8.533
914 46 1 15.534 13.763 9.244
915 46 1 15.534 13.763 9.956
916 46 1 15.534 13.763 10.667
917 46 1 15.534 13.763 11.378
918 46 1 15.534 13.763 12.089
919 46 1 15.534 13.763 12.800
920 46 1 15.534 13.763 13.511
921 47 1 18.641 13.763 0.000
922 47 1 18.641 13.763 0.711
923 47 1 18.641 13.763 1.422
924 47 1 18.641 13.763 2.133
925 47 1 18.641 13.763 2.844
926 47 1 18.641 13.763 3.556
927 47 1 18.641 13.763 4.267
928 47 1 18.641 13.763 4.978
929 47 1 18.641 13.763 5.689
930 47 1 18.641 13.763 6.400
931 47 1 18.641 13.763 7.111
932 47 1 18.641 13.763 7.822
933 47 1 18.641 13.763 8.533
934 47 1 18.641 13.763 9.244
935 47 1 18.641 13.763 9.956
936 47 1 18.641 13.763 10.667
937 47 1 18.641 13.763 11.378
938 47 1 18.641 13.763 12.089
939 47 1 18.641 13.763 12.800
940 47 1 18.641 13.763 13.511
941 48 1 21.748 13.763 0.000
942 48 1 21.748 13.763 0.711
943 48 1 21.748 13.763 1.422
944 48 1 21.748 13.763 2.133
945 48 1 21.748 13.763 2.844
946 48 1 21.748 13.763 3.556
947 48 1 21.748 13.763 4.267
948 48 1 21.748 13.763 4.978
949 48 1 21.748 13.763 5.689
950 48 1 21.748 13.763 6.400
951 48 1 21.748 13.763 7.111
952 48 1 21.748 13.763 7.822
953 48 1 21.748 13.763 8.533
954 48 1 21.748 13.763 9.244
955 48 1 21.748 13.763 9.956
956 48 1 21.748 13.763 10.667
957 48 1 21.748 13.763 11.378
958 48 1 21.748 13.763 12.089
959 48 1 21.748 13.763 12.800
960 48 1 21.748 13.763 13.511
961 49 1 24.854 13.763 0.000
962 49 1 24.854 13.763 0.711
963 49 1 24.854 13.763 1.422
964 49 1 24.854 13.763 2.133
965 49 1 24.854 13.763 2.844
966 49 1 24.854 13.763 3.556
967 49 1 24.854 13.763 4.267
968 49 1 24.854 13.763 4.978
969 49 1 24.854 13.763 5.689
970 49 1 24.854 13.763 6.400
971 49 1 24.854 13.763 7.111
972 49 1 24.854 13.763 7.822
973 49 1 24.854 13.763 8.533
974 49 1 24.854 13.763 9.244
975 49 1 24.854 13.763 9.956
976 49 1 24.854 13.763 10.667
977 49 1 24.854 13.763 11.378
978 49 1 24.854 13.763 12.089
979 49 1 24.854 13.763 12.800
980 49 1 24.854 13.763 13.511
981 50 1 27.961 13.763 0.000
982 50 1 27.961 13.763 0.711
983 50 1 27.961 13.763 1.422
984 50 1 27.961 13.763 2.133
985 50 1 27.961 13.763 2.844
986 50 1 27.961 13.763 3.556
987 50 1 27.961 13.763 4.267
988 50 1 27.961 13.763 4.978
989 50 1 27.961 13.763 5.689
990 50 1 27.961 13.763 6.400
991 50 1 27.961 13.763 7.111
992 50 1 27.961 13.763 7.822
993 50 1 27.961 13.763 8.533
994 50 1 27.961 13.763 9.244
995 50 1 27.961 13.763 9.956
996 50 1 27.961 13.763 10.667
997 50 1 27.961 13.763 11.378
998 50 1 27.961 13.763 12.089
999 50 1 27.961 13.763 12.800
1000 50 1 27.961 13.763 13.511
1001 51 1 0.000 17.204 0.000
1002 51 1 0.000 17.204 0.711
1003 51 1 0.000 17.204 1.422
1004 51 1 0.000 17.204 2.133
1005 51 1 0.000 17.204 2.844
1006 51 1 0.000 17.204 3.556
1007 51 1 0.000 17.204 4.267
1008 51 1 0.000 17.204 4.978
1009 51 1 0.000 17.204 5.689
1010 51 1 0.000 17.204 6.400
1011 51 1 0.000 17.204 7.111
1012 51 1 0.000 17.204 7.822
1013 51 1 0.000 17.204 8.533
1014 51 1 0.000 17.204 9.244
1015 51 1 0.000 17.204 9.956
1016 51 1 0.000 17.204 10.667
1017 51 1 0.000 17.204 11.378
1018 51 1 0.000 17.204 12.089
1019 51 1 0.000 17.204 12.800
1020 51 1 0.000 17.204 13.511
1021 52 1 3.107 17.204 0.000
1022 52 1 3.107 17.204 0.711
1023 52 1 3.107 17.204 1.422
1024 52 1 3.107 17.204 2.133
1025 52 1 3.107 17.204 2.844
1026 52 1 3.107 17.204 3.556
1027 52 1 3.107 17.204 4.267
1028 52 1 3.107 17.204 4.978
1029 52 1 3.107 17.204 5.689
1030 52 1 3.107 17.204 6.400
1031 52 1 3.107 17.204 7.111
1032 52 1 3.107 17.204 7.822
1033 52 1 3.107 17.204 8.533
1034 52 1 3.107 17.204 9.244
1035 52 1 3.107 17.204 9.956
1036 52 1 3.107 17.204 10.667
1037 52 1 3.107 17.204 11.378
1038 52 1 3.107 17.204 12.089
1039 52 1 3.107 17.204 12.800
1040 52 1 3.107 17.204 13.511
1041 53 1 6.214 17.204 0.000
1042 53 1 6.214 17.204 0.711
1043 53 1 6.214 17.204 1.422
1044 53 1 6.214 17.204 2.133
1045 53 1 6.214 17.204 2.844
1046 53 1 6.214 17.204 3.556
1047 53 1 6.214 17.204 4.267
1048 53 1 6.214 17.204 4.978
1049 53 1 6.214 17.204 5.689
1050 53 1 6.214 17.204 6.400
1051 53 1 6.214 17.204 7.111
1052 53 1 6.214 17.204 7.822
1053 53 1 6.214 17.204 8.533
1054 53 1 6.214 17.204 9.244
1055 53 1 6.214 17.204 9.956
1056 53 1 6.214 17.204 10.667
1057 53 1 6.214 17.204 11.378
1058 53 1 6.214 17.204 12.089
1059 53 1 6.214 17.204 12.800
1060 53 1 6.214 17.204 13.511
1061 54 1 9.320 17.204 0.000
1062 54 1 9.320 17.204 0.711