LAMMPS data file for polymer chains

1792 atoms
1680 bonds

2 atom types
1 bond types

0.0 32.0 xlo xhi
0.0 32.0 ylo yhi
0.0 32.0 zlo zhi

Masses

1 1.0  # Type A
2 1.0  # Type B

Atoms # molecular

1 1 1 0.000 0.000 0.000
2 1 1 0.000 0.000 0.865
3 1 1 0.000 0.000 1.730
4 1 1 0.000 0.000 2.595
5 1 1 0.000 0.000 3.459
6 1 1 0.000 0.000 4.324
7 1 1 0.000 0.000 5.189
8 1 1 0.000 0.000 6.054
9 1 1 0.000 0.000 6.919
10 1 1 0.000 0.000 7.784
11 1 1 0.000 0.000 8.649
12 1 1 0.000 0.000 9.514
13 1 1 0.000 0.000 10.378
14 1 1 0.000 0.000 11.243
15 1 1 0.000 0.000 12.108
16 1 1 0.000 0.000 12.973
17 2 1 3.855 0.000 0.000
18 2 1 3.855 0.000 0.865
19 2 1 3.855 0.000 1.730
20 2 1 3.855 0.000 2.595
21 2 1 3.855 0.000 3.459
22 2 1 3.855 0.000 4.324
23 2 1 3.855 0.000 5.189
24 2 1 3.855 0.000 6.054
25 2 1 3.855 0.000 6.919
26 2 1 3.855 0.000 7.784
27 2 1 3.855 0.000 8.649
28 2 1 3.855 0.000 9.514
29 2 1 3.855 0.000 10.378
30 2 1 3.855 0.000 11.243
31 2 1 3.855 0.000 12.108
32 2 1 3.855 0.000 12.973
33 3 1 7.711 0.000 0.000
34 3 1 7.711 0.000 0.865
35 3 1 7.711 0.000 1.730
36 3 1 7.711 0.000 2.595
37 3 1 7.711 0.000 3.459
38 3 1 7.711 0.000 4.324
39 3 1 7.711 0.000 5.189
40 3 1 7.711 0.000 6.054
41 3 1 7.711 0.000 6.919
42 3 1 7.711 0.000 7.784
43 3 1 7.711 0.000 8.649
44 3 1 7.711 0.000 9.514
45 3 1 7.711 0.000 10.378
46 3 1 7.711 0.000 11.243
47 3 1 7.711 0.000 12.108
48 3 1 7.711 0.000 12.973
49 4 1 11.566 0.000 0.000
50 4 1 11.566 0.000 0.865
51 4 1 11.566 0.000 1.730
52 4 1 11.566 0.000 2.595
53 4 1 11.566 0.000 3.459
54 4 1 11.566 0.000 4.324
55 4 1 11.566 0.000 5.189
56 4 1 11.566 0.000 6.054
57 4 1 11.566 0.000 6.919
58 4 1 11.566 0.000 7.784
59 4 1 11.566 0.000 8.649
60 4 1 11.566 0.000 9.514
61 4 1 11.566 0.000 10.378
62 4 1 11.566 0.000 11.243
63 4 1 11.566 0.000 12.108
64 4 1 11.566 0.000 12.973
65 5 1 15.422 0.000 0.000
66 5 1 15.422 0.000 0.865
67 5 1 15.422 0.000 1.730
68 5 1 15.422 0.000 2.595
69 5 1 15.422 0.000 3.459
70 5 1 15.422 0.000 4.324
71 5 1 15.422 0.000 5.189
72 5 1 15.422 0.000 6.054
73 5 1 15.422 0.000 6.919
74 5 1 15.422 0.000 7.784
75 5 1 15.422 0.000 8.649
76 5 1 15.422 0.000 9.514
77 5 1 15.422 0.000 10.378
78 5 1 15.422 0.000 11.243
79 5 1 15.422 0.000 12.108
80 5 1 15.422 0.000 12.973
81 6 1 19.277 0.000 0.000
82 6 1 19.277 0.000 0.865
83 6 1 19.277 0.000 1.730
84 6 1 19.277 0.000 2.595
85 6 1 19.277 0.000 3.459
86 6 1 19.277 0.000 4.324
87 6 1 19.277 0.000 5.189
88 6 1 19.277 0.000 6.054
89 6 1 19.277 0.000 6.919
90 6 1 19.277 0.000 7.784
91 6 1 19.277 0.000 8.649
92 6 1 19.277 0.000 9.514
93 6 1 19.277 0.000 10.378
94 6 1 19.277 0.000 11.243
95 6 1 19.277 0.000 12.108
96 6 1 19.277 0.000 12.973
97 7 1 23.133 0.000 0.000
98 7 1 23.133 0.000 0.865
99 7 1 23.133 0.000 1.730
100 7 1 23.133 0.000 2.595
101 7 1 23.133 0.000 3.459
102 7 1 23.133 0.000 4.324
103 7 1 23.133 0.000 5.189
104 7 1 23.133 0.000 6.054
105 7 1 23.133 0.000 6.919
106 7 1 23.133 0.000 7.784
107 7 1 23.133 0.000 8.649
108 7 1 23.133 0.000 9.514
109 7 1 23.133 0.000 10.378
110 7 1 23.133 0.000 11.243
111 7 1 23.133 0.000 12.108
112 7 1 23.133 0.000 12.973
113 8 1 26.988 0.000 0.000
114 8 1 26.988 0.000 0.865
115 8 1 26.988 0.000 1.730
116 8 1 26.988 0.000 2.595
117 8 1 26.988 0.000 3.459
118 8 1 26.988 0.000 4.324
119 8 1 26.988 0.000 5.189
120 8 1 26.988 0.000 6.054
121 8 1 26.988 0.000 6.919
122 8 1 26.988 0.000 7.784
123 8 1 26.988 0.000 8.649
124 8 1 26.988 0.000 9.514
125 8 1 26.988 0.000 10.378
126 8 1 26.988 0.000 11.243
127 8 1 26.988 0.000 12.108
128 8 1 26.988 0.000 12.973
129 9 1 0.000 4.384 0.000
130 9 1 0.000 4.384 0.865
131 9 1 0.000 4.384 1.730
132 9 1 0.000 4.384 2.595
133 9 1 0.000 4.384 3.459
134 9 1 0.000 4.384 4.324
135 9 1 0.000 4.384 5.189
136 9 1 0.000 4.384 6.054
137 9 1 0.000 4.384 6.919
138 9 1 0.000 4.384 7.784
139 9 1 0.000 4.384 8.649
140 9 1 0.000 4.384 9.514
141 9 1 0.000 4.384 10.378
142 9 1 0.000 4.384 11.243
143 9 1 0.000 4.384 12.108
144 9 1 0.000 4.384 12.973
145 10 1 3.855 4.384 0.000
146 10 1 3.855 4.384 0.865
147 10 1 3.855 4.384 1.730
148 10 1 3.855 4.384 2.595
149 10 1 3.855 4.384 3.459
150 10 1 3.855 4.384 4.324
151 10 1 3.855 4.384 5.189
152 10 1 3.855 4.384 6.054
153 10 1 3.855 4.384 6.919
154 10 1 3.855 4.384 7.784
155 10 1 3.855 4.384 8.649
156 10 1 3.855 4.384 9.514
157 10 1 3.855 4.384 10.378
158 10 1 3.855 4.384 11.243
159 10 1 3.855 4.384 12.108
160 10 1 3.855 4.384 12.973
161 11 1 7.711 4.384 0.000
162 11 1 7.711 4.384 0.865
163 11 1 7.711 4.384 1.730
164 11 1 7.711 4.384 2.595
165 11 1 7.711 4.384 3.459
166 11 1 7.711 4.384 4.324
167 11 1 7.711 4.384 5.189
168 11 1 7.711 4.384 6.054
169 11 1 7.711 4.384 6.919
170 11 1 7.711 4.384 7.784
171 11 1 7.711 4.384 8.649
172 11 1 7.711 4.384 9.514
173 11 1 7.711 4.384 10.378
174 11 1 7.711 4.384 11.243
175 11 1 7.711 4.384 12.108
176 11 1 7.711 4.384 12.973
177 12 1 11.566 4.384 0.000
178 12 1 11.566 4.384 0.865
179 12 1 11.566 4.384 1.730
180 12 1 11.566 4.384 2.595
181 12 1 11.566 4.384 3.459
182 12 1 11.566 4.384 4.324
183 12 1 11.566 4.384 5.189
184 12 1 11.566 4.384 6.054
185 12 1 11.566 4.384 6.919
186 12 1 11.566 4.384 7.784
187 12 1 11.566 4.384 8.649
188 12 1 11.566 4.384 9.514
189 12 1 11.566 4.384 10.378
190 12 1 11.566 4.384 11.243
191 12 1 11.566 4.384 12.108
192 12 1 11.566 4.384 12.973
193 13 1 15.422 4.384 0.000
194 13 1 15.422 4.384 0.865
195 13 1 15.422 4.384 1.730
196 13 1 15.422 4.384 2.595
197 13 1 15.422 4.384 3.459
198 13 1 15.422 4.384 4.324
199 13 1 15.422 4.384 5.189
200 13 1 15.422 4.384 6.054
201 13 1 15.422 4.384 6.919
202 13 1 15.422 4.384 7.784
203 13 1 15.422 4.384 8.649
204 13 1 15.422 4.384 9.514
205 13 1 15.422 4.384 10.378
206 13 1 15.422 4.384 11.243
207 13 1 15.422 4.384 12.108
208 13 1 15.422 4.384 12.973
209 14 1 19.277 4.384 0.000
210 14 1 19.277 4.384 0.865
211 14 1 19.277 4.384 1.730
212 14 1 19.277 4.384 2.595
213 14 1 19.277 4.384 3.459
214 14 1 19.277 4.384 4.324
215 14 1 19.277 4.384 5.189
216 14 1 19.277 4.384 6.054
217 14 1 19.277 4.384 6.919
218 14 1 19.277 4.384 7.784
219 14 1 19.277 4.384 8.649
220 14 1 19.277 4.384 9.514
221 14 1 19.277 4.384 10.378
222 14 1 19.277 4.384 11.243
223 14 1 19.277 4.384 12.108
224 14 1 19.277 4.384 12.973
225 15 1 23.133 4.384 0.000
226 15 1 23.133 4.384 0.865
227 15 1 23.133 4.384 1.730
228 15 1 23.133 4.384 2.595
229 15 1 23.133 4.384 3.459
230 15 1 23.133 4.384 4.324
231 15 1 23.133 4.384 5.189
232 15 1 23.133 4.384 6.054
233 15 1 23.133 4.384 6.919
234 15 1 23.133 4.384 7.784
235 15 1 23.133 4.384 8.649
236 15 1 23.133 4.384 9.514
237 15 1 23.133 4.384 10.378
238 15 1 23.133 4.384 11.243
239 15 1 23.133 4.384 12.108
240 15 1 23.133 4.384 12.973
241 16 1 26.988 4.384 0.000
242 16 1 26.988 4.384 0.865
243 16 1 26.988 4.384 1.730
244 16 1 26.988 4.384 2.595
245 16 1 26.988 4.384 3.459
246 16 1 26.988 4.384 4.324
247 16 1 26.988 4.384 5.189
248 16 1 26.988 4.384 6.054
249 16 1 26.988 4.384 6.919
250 16 1 26.988 4.384 7.784
251 16 1 26.988 4.384 8.649
252 16 1 26.988 4.384 9.514
253 16 1 26.988 4.384 10.378
254 16 1 26.988 4.384 11.243
255 16 1 26.988 4.384 12.108
256 16 1 26.988 4.384 12.973
257 17 1 0.000 8.767 0.000
258 17 1 0.000 8.767 0.865
259 17 1 0.000 8.767 1.730
260 17 1 0.000 8.767 2.595
261 17 1 0.000 8.767 3.459
262 17 1 0.000 8.767 4.324
263 17 1 0.000 8.767 5.189
264 17 1 0.000 8.767 6.054
265 17 1 0.000 8.767 6.919
266 17 1 0.000 8.767 7.784
267 17 1 0.000 8.767 8.649
268 17 1 0.000 8.767 9.514
269 17 1 0.000 8.767 10.378
270 17 1 0.000 8.767 11.243
271 17 1 0.000 8.767 12.108
272 17 1 0.000 8.767 12.973
273 18 1 3.855 8.767 0.000
274 18 1 3.855 8.767 0.865
275 18 1 3.855 8.767 1.730
276 18 1 3.855 8.767 2.595
277 18 1 3.855 8.767 3.459
278 18 1 3.855 8.767 4.324
279 18 1 3.855 8.767 5.189
280 18 1 3.855 8.767 6.054
281 18 1 3.855 8.767 6.919
282 18 1 3.855 8.767 7.784
283 18 1 3.855 8.767 8.649
284 18 1 3.855 8.767 9.514
285 18 1 3.855 8.767 10.378
286 18 1 3.855 8.767 11.243
287 18 1 3.855 8.767 12.108
288 18 1 3.855 8.767 12.973
289 19 1 7.711 8.767 0.000
290 19 1 7.711 8.767 0.865
291 19 1 7.711 8.767 1.730
292 19 1 7.711 8.767 2.595
293 19 1 7.711 8.767 3.459
294 19 1 7.711 8.767 4.324
295 19 1 7.711 8.767 5.189
296 19 1 7.711 8.767 6.054
297 19 1 7.711 8.767 6.919
298 19 1 7.711 8.767 7.784
299 19 1 7.711 8.767 8.649
300 19 1 7.711 8.767 9.514
301 19 1 7.711 8.767 10.378
302 19 1 7.711 8.767 11.243
303 19 1 7.711 8.767 12.108
304 19 1 7.711 8.767 12.973
305 20 1 11.566 8.767 0.000
306 20 1 11.566 8.767 0.865
307 20 1 11.566 8.767 1.730
308 20 1 11.566 8.767 2.595
309 20 1 11.566 8.767 3.459
310 20 1 11.566 8.767 4.324
311 20 1 11.566 8.767 5.189
312 20 1 11.566 8.767 6.054
313 20 1 11.566 8.767 6.919
314 20 1 11.566 8.767 7.784
315 20 1 11.566 8.767 8.649
316 20 1 11.566 8.767 9.514
317 20 1 11.566 8.767 10.378
318 20 1 11.566 8.767 11.243
319 20 1 11.566 8.767 12.108
320 20 1 11.566 8.767 12.973
321 21 1 15.422 8.767 0.000
322 21 1 15.422 8.767 0.865
323 21 1 15.422 8.767 1.730
324 21 1 15.422 8.767 2.595
325 21 1 15.422 8.767 3.459
326 21 1 15.422 8.767 4.324
327 21 1 15.422 8.767 5.189
328 21 1 15.422 8.767 6.054
329 21 1 15.422 8.767 6.919
330 21 1 15.422 8.767 7.784
331 21 1 15.422 8.767 8.649
332 21 1 15.422 8.767 9.514
333 21 1 15.422 8.767 10.378
334 21 1 15.422 8.767 11.243
335 21 1 15.422 8.767 12.108
336 21 1 15.422 8.767 12.973
337 22 1 19.277 8.767 0.000
338 22 1 19.277 8.767 0.865
339 22 1 19.277 8.767 1.730
340 22 1 19.277 8.767 2.595
341 22 1 19.277 8.767 3.459
342 22 1 19.277 8.767 4.324
343 22 1 19.277 8.767 5.189
344 22 1 19.277 8.767 6.054
345 22 1 19.277 8.767 6.919
346 22 1 19.277 8.767 7.784
347 22 1 19.277 8.767 8.649
348 22 1 19.277 8.767 9.514
349 22 1 19.277 8.767 10.378
350 22 1 19.277 8.767 11.243
351 22 1 19.277 8.767 12.108
352 22 1 19.277 8.767 12.973
353 23 1 23.133 8.767 0.000
354 23 1 23.133 8.767 0.865
355 23 1 23.133 8.767 1.730
356 23 1 23.133 8.767 2.595
357 23 1 23.133 8.767 3.459
358 23 1 23.133 8.767 4.324
359 23 1 23.133 8.767 5.189
360 23 1 23.133 8.767 6.054
361 23 1 23.133 8.767 6.919
362 23 1 23.133 8.767 7.784
363 23 1 23.133 8.767 8.649
364 23 1 23.133 8.767 9.514
365 23 1 23.133 8.767 10.378
366 23 1 23.133 8.767 11.243
367 23 1 23.133 8.767 12.108
368 23 1 23.133 8.767 12.973
369 24 1 26.988 8.767 0.000
370 24 1 26.988 8.767 0.865
371 24 1 26.988 8.767 1.730
372 24 1 26.988 8.767 2.595
373 24 1 26.988 8.767 3.459
374 24 1 26.988 8.767 4.324
375 24 1 26.988 8.767 5.189
376 24 1 26.988 8.767 6.054
377 24 1 26.988 8.767 6.919
378 24 1 26.988 8.767 7.784
379 24 1 26.988 8.767 8.649
380 24 1 26.988 8.767 9.514
381 24 1 26.988 8.767 10.378
382 24 1 26.988 8.767 11.243
383 24 1 26.988 8.767 12.108
384 24 1 26.988 8.767 12.973
385 25 1 0.000 13.151 0.000
386 25 1 0.000 13.151 0.865
387 25 1 0.000 13.151 1.730
388 25 1 0.000 13.151 2.595
389 25 1 0.000 13.151 3.459
390 25 1 0.000 13.151 4.324
391 25 1 0.000 13.151 5.189
392 25 1 0.000 13.151 6.054
393 25 1 0.000 13.151 6.919
394 25 1 0.000 13.151 7.784
395 25 1 0.000 13.151 8.649
396 25 1 0.000 13.151 9.514
397 25 1 0.000 13.151 10.378
398 25 1 0.000 13.151 11.243
399 25 1 0.000 13.151 12.108
400 25 1 0.000 13.151 12.973
401 26 1 3.855 13.151 0.000
402 26 1 3.855 13.151 0.865
403 26 1 3.855 13.151 1.730
404 26 1 3.855 13.151 2.595
405 26 1 3.855 13.151 3.459
406 26 1 3.855 13.151 4.324
407 26 1 3.855 13.151 5.189
408 26 1 3.855 13.151 6.054
409 26 1 3.855 13.151 6.919
410 26 1 3.855 13.151 7.784
411 26 1 3.855 13.151 8.649
412 26 1 3.855 13.151 9.514
413 26 1 3.855 13.151 10.378
414 26 1 3.855 13.151 11.243
415 26 1 3.855 13.151 12.108
416 26 1 3.855 13.151 12.973
417 27 1 7.711 13.151 0.000
418 27 1 7.711 13.151 0.865
419 27 1 7.711 13.151 1.730
420 27 1 7.711 13.151 2.595
421 27 1 7.711 13.151 3.459
422 27 1 7.711 13.151 4.324
423 27 1 7.711 13.151 5.189
424 27 1 7.711 13.151 6.054
425 27 1 7.711 13.151 6.919
426 27 1 7.711 13.151 7.784
427 27 1 7.711 13.151 8.649
428 27 1 7.711 13.151 9.514
429 27 1 7.711 13.151 10.378
430 27 1 7.711 13.151 11.243
431 27 1 7.711 13.151 12.108
432 27 1 7.711 13.151 12.973
433 28 1 11.566 13.151 0.000
434 28 1 11.566 13.151 0.865
435 28 1 11.566 13.151 1.730
436 28 1 11.566 13.151 2.595
437 28 1 11.566 13.151 3.459
438 28 1 11.566 13.151 4.324
439 28 1 11.566 13.151 5.189
440 28 1 11.566 13.151 6.054
441 28 1 11.566 13.151 6.919
442 28 1 11.566 13.151 7.784
443 28 1 11.566 13.151 8.649
444 28 1 11.566 13.151 9.514
445 28 1 11.566 13.151 10.378
446 28 1 11.566 13.151 11.243
447 28 1 11.566 13.151 12.108
448 28 1 11.566 13.151 12.973
449 29 1 15.422 13.151 0.000
450 29 1 15.422 13.151 0.865
451 29 1 15.422 13.151 1.730
452 29 1 15.422 13.151 2.595
453 29 1 15.422 13.151 3.459
454 29 1 15.422 13.151 4.324
455 29 1 15.422 13.151 5.189
456 29 1 15.422 13.151 6.054
457 29 1 15.422 13.151 6.919
458 29 1 15.422 13.151 7.784
459 29 1 15.422 13.151 8.649
460 29 1 15.422 13.151 9.514
461 29 1 15.422 13.151 10.378
462 29 1 15.422 13.151 11.243
463 29 1 15.422 13.151 12.108
464 29 1 15.422 13.151 12.973
465 30 1 19.277 13.151 0.000
466 30 1 19.277 13.151 0.865
467 30 1 19.277 13.151 1.730
468 30 1 19.277 13.151 2.595
469 30 1 19.277 13.151 3.459
470 30 1 19.277 13.151 4.324
471 30 1 19.277 13.151 5.189
472 30 1 19.277 13.151 6.054
473 30 1 19.277 13.151 6.919
474 30 1 19.277 13.151 7.784
475 30 1 19.277 13.151 8.649
476 30 1 19.277 13.151 9.514
477 30 1 19.277 13.151 10.378
478 30 1 19.277 13.151 11.243
479 30 1 19.277 13.151 12.108
480 30 1 19.277 13.151 12.973
481 31 1 23.133 13.151 0.000
482 31 1 23.133 13.151 0.865
483 31 1 23.133 13.151 1.730
484 31 1 23.133 13.151 2.595
485 31 1 23.133 13.151 3.459
486 31 1 23.133 13.151 4.324
487 31 1 23.133 13.151 5.189
488 31 1 23.133 13.151 6.054
489 31 1 23.133 13.151 6.919
490 31 1 23.133 13.151 7.784
491 31 1 23.133 13.151 8.649
492 31 1 23.133 13.151 9.514
493 31 1 23.133 13.151 10.378
494 31 1 23.133 13.151 11.243
495 31 1 23.133 13.151 12.108
496 31 1 23.133 13.151 12.973
497 32 1 26.988 13.151 0.000
498 32 1 26.988 13.151 0.865
499 32 1 26.988 13.151 1.730
500 32 1 26.988 13.151 2.595
501 32 1 26.988 13.151 3.459
502 32 1 26.988 13.151 4.324
503 32 1 26.988 13.151 5.189
504 32 1 26.988 13.151 6.054
505 32 1 26.988 13.151 6.919
506 32 1 26.988 13.151 7.784
507 32 1 26.988 13.151 8.649
508 32 1 26.988 13.151 9.514
509 32 1 26.988 13.151 10.378
510 32 1 26.988 13.151 11.243
511 32 1 26.988 13.151 12.108
512 32 1 26.988 13.151 12.973
513 33 1 0.000 17.534 0.000
514 33 1 0.000 17.534 0.865
515 33 1 0.000 17.534 1.730
516 33 1 0.000 17.534 2.595
517 33 1 0.000 17.534 3.459
518 33 1 0.000 17.534 4.324
519 33 1 0.000 17.534 5.189
520 33 1 0.000 17.534 6.054
521 33 1 0.000 17.534 6.919
522 33 1 0.000 17.534 7.784
523 33 1 0.000 17.534 8.649
524 33 1 0.000 17.534 9.514
525 33 1 0.000 17.534 10.378
526 33 1 0.000 17.534 11.243
527 33 1 0.000 17.534 12.108
528 33 1 0.000 17.534 12.973
529 34 1 3.855 17.534 0.000
530 34 1 3.855 17.534 0.865
531 34 1 3.855 17.534 1.730
532 34 1 3.855 17.534 2.595
533 34 1 3.855 17.534 3.459
534 34 1 3.855 17.534 4.324
535 34 1 3.855 17.534 5.189
536 34 1 3.855 17.534 6.054
537 34 1 3.855 17.534 6.919
538 34 1 3.855 17.534 7.784
539 34 1 3.855 17.534 8.649
540 34 1 3.855 17.534 9.514
541 34 1 3.855 17.534 10.378
542 34 1 3.855 17.534 11.243
543 34 1 3.855 17.534 12.108
544 34 1 3.855 17.534 12.973
545 35 1 7.711 17.534 0.000
546 35 1 7.711 17.534 0.865
547 35 1 7.711 17.534 1.730
548 35 1 7.711 17.534 2.595
549 35 1 7.711 17.534 3.459
550 35 1 7.711 17.534 4.324
551 35 1 7.711 17.534 5.189
552 35 1 7.711 17.534 6.054
553 35 1 7.711 17.534 6.919
554 35 1 7.711 17.534 7.784
555 35 1 7.711 17.534 8.649
556 35 1 7.711 17.534 9.514
557 35 1 7.711 17.534 10.378
558 35 1 7.711 17.534 11.243
559 35 1 7.711 17.534 12.108
560 35 1 7.711 17.534 12.973
561 36 1 11.566 17.534 0.000
562 36 1 11.566 17.534 0.865
563 36 1 11.566 17.534 1.730
564 36 1 11.566 17.534 2.595
565 36 1 11.566 17.534 3.459
566 36 1 11.566 17.534 4.324
567 36 1 11.566 17.534 5.189
568 36 1 11.566 17.534 6.054
569 36 1 11.566 17.534 6.919
570 36 1 11.566 17.534 7.784
571 36 1 11.566 17.534 8.649
572 36 1 11.566 17.534 9.514
573 36 1 11.566 17.534 10.378
574 36 1 11.566 17.534 11.243
575 36 1 11.566 17.534 12.108
576 36 1 11.566 17.534 12.973
577 37 1 15.422 17.534 0.000
578 37 1 15.422 17.534 0.865
579 37 1 15.422 17.534 1.730
580 37 1 15.422 17.534 2.595
581 37 1 15.422 17.534 3.459
582 37 1 15.422 17.534 4.324
583 37 1 15.422 17.534 5.189
584 37 1 15.422 17.534 6.054
585 37 1 15.422 17.534 6.919
586 37 1 15.422 17.534 7.784
587 37 1 15.422 17.534 8.649
588 37 1 15.422 17.534 9.514
589 37 1 15.422 17.534 10.378
590 37 1 15.422 17.534 11.243
591 37 1 15.422 17.534 12.108
592 37 1 15.422 17.534 12.973
593 38 1 19.277 17.534 0.000
594 38 1 19.277 17.534 0.865
595 38 1 19.277 17.534 1.730
596 38 1 19.277 17.534 2.595
597 38 1 19.277 17.534 3.459
598 38 1 19.277 17.534 4.324
599 38 1 19.277 17.534 5.189
600 38 1 19.277 17.534 6.054
601 38 1 19.277 17.534 6.919
602 38 1 19.277 17.534 7.784
603 38 1 19.277 17.534 8.649
604 38 1 19.277 17.534 9.514
605 38 1 19.277 17.534 10.378
606 38 1 19.277 17.534 11.243
607 38 1 19.277 17.534 12.108
608 38 1 19.277 17.534 12.973
609 39 1 23.133 17.534 0.000
610 39 1 23.133 17.534 0.865
611 39 1 23.133 17.534 1.730
612 39 1 23.133 17.534 2.595
613 39 1 23.133 17.534 3.459
614 39 1 23.133 17.534 4.324
615 39 1 23.133 17.534 5.189
616 39 1 23.133 17.534 6.054
617 39 1 23.133 17.534 6.919
618 39 1 23.133 17.534 7.784
619 39 1 23.133 17.534 8.649
620 39 1 23.133 17.534 9.514
621 39 1 23.133 17.534 10.378
622 39 1 23.133 17.534 11.243
623 39 1 23.133 17.534 12.108
624 39 1 23.133 17.534 12.973
625 40 1 26.988 17.534 0.000
626 40 1 26.988 17.534 0.865
627 40 1 26.988 17.534 1.730
628 40 1 26.988 17.534 2.595
629 40 1 26.988 17.534 3.459
630 40 1 26.988 17.534 4.324
631 40 1 26.988 17.534 5.189
632 40 1 26.988 17.534 6.054
633 40 1 26.988 17.534 6.919
634 40 1 26.988 17.534 7.784
635 40 1 26.988 17.534 8.649
636 40 1 26.988 17.534 9.514
637 40 1 26.988 17.534 10.378
638 40 1 26.988 17.534 11.243
639 40 1 26.988 17.534 12.108
640 40 1 26.988 17.534 12.973
641 41 1 0.000 21.918 0.000
642 41 1 0.000 21.918 0.865
643 41 1 0.000 21.918 1.730
644 41 1 0.000 21.918 2.595
645 41 1 0.000 21.918 3.459
646 41 1 0.000 21.918 4.324
647 41 1 0.000 21.918 5.189
648 41 1 0.000 21.918 6.054
649 41 1 0.000 21.918 6.919
650 41 1 0.000 21.918 7.784
651 41 1 0.000 21.918 8.649
652 41 1 0.000 21.918 9.514
653 41 1 0.000 21.918 10.378
654 41 1 0.000 21.918 11.243
655 41 1 0.000 21.918 12.108
656 41 1 0.000 21.918 12.973
657 42 1 3.855 21.918 0.000
658 42 1 3.855 21.918 0.865
659 42 1 3.855 21.918 1.730
660 42 1 3.855 21.918 2.595
661 42 1 3.855 21.918 3.459
662 42 1 3.855 21.918 4.324
663 42 1 3.855 21.918 5.189
664 42 1 3.855 21.918 6.054
665 42 1 3.855 21.918 6.919
666 42 1 3.855 21.918 7.784
667 42 1 3.855 21.918 8.649
668 42 1 3.855 21.918 9.514
669 42 1 3.855 21.918 10.378
670 42 1 3.855 21.918 11.243
671 42 1 3.855 21.918 12.108
672 42 1 3.855 21.918 12.973
673 43 1 7.711 21.918 0.000
674 43 1 7.711 21.918 0.865
675 43 1 7.711 21.918 1.730
676 43 1 7.711 21.918 2.595
677 43 1 7.711 21.918 3.459
678 43 1 7.711 21.918 4.324
679 43 1 7.711 21.918 5.189
680 43 1 7.711 21.918 6.054
681 43 1 7.711 21.918 6.919
682 43 1 7.711 21.918 7.784
683 43 1 7.711 21.918 8.649
684 43 1 7.711 21.918 9.514
685 43 1 7.711 21.918 10.378
686 43 1 7.711 21.918 11.243
687 43 1 7.711 21.918 12.108
688 43 1 7.711 21.918 12.973
689 44 1 11.566 21.918 0.000
690 44 1 11.566 21.918 0.865
691 44 1 11.566 21.918 1.730
692 44 1 11.566 21.918 2.595
693 44 1 11.566 21.918 3.459
694 44 1 11.566 21.918 4.324
695 44 1 11.566 21.918 5.189
696 44 1 11.566 21.918 6.054
697 44 1 11.566 21.918 6.919
698 44 1 11.566 21.918 7.784
699 44 1 11.566 21.918 8.649
700 44 1 11.566 21.918 9.514
701 44 1 11.566 21.918 10.378
702 44 1 11.566 21.918 11.243
703 44 1 11.566 21.918 12.108
704 44 1 11.566 21.918 12.973
705 45 1 15.422 21.918 0.000
706 45 1 15.422 21.918 0.865
707 45 1 15.422 21.918 1.730
708 45 1 15.422 21.918 2.595
709 45 1 15.422 21.918 3.459
710 45 1 15.422 21.918 4.324
711 45 1 15.422 21.918 5.189
712 45 1 15.422 21.918 6.054
713 45 1 15.422 21.918 6.919
714 45 1 15.422 21.918 7.784
715 45 1 15.422 21.918 8.649
716 45 1 15.422 21.918 9.514
717 45 1 15.422 21.918 10.378
718 45 1 15.422 21.918 11.243
719 45 1 15.422 21.918 12.108
720 45 1 15.422 21.918 12.973
721 46 1 19.277 21.918 0.000
722 46 1 19.277 21.918 0.865
723 46 1 19.277 21.918 1.730
724 46 1 19.277 21.918 2.595
725 46 1 19.277 21.918 3.459
726 46 1 19.277 21.918 4.324
727 46 1 19.277 21.918 5.189
728 46 1 19.277 21.918 6.054
729 46 1 19.277 21.918 6.919
730 46 1 19.277 21.918 7.784
731 46 1 19.277 21.918 8.649
732 46 1 19.277 21.918 9.514
733 46 1 19.277 21.918 10.378
734 46 1 19.277 21.918 11.243
735 46 1 19.277 21.918 12.108
736 46 1 19.277 21.918 12.973
737 47 1 23.133 21.918 0.000
738 47 1 23.133 21.918 0.865
739 47 1 23.133 21.918 1.730
740 47 1 23.133 21.918 2.595
741 47 1 23.133 21.918 3.459
742 47 1 23.133 21.918 4.324
743 47 1 23.133 21.918 5.189
744 47 1 23.133 21.918 6.054
745 47 1 23.133 21.918 6.919
746 47 1 23.133 21.918 7.784
747 47 1 23.133 21.918 8.649
748 47 1 23.133 21.918 9.514
749 47 1 23.133 21.918 10.378
750 47 1 23.133 21.918 11.243
751 47 1 23.133 21.918 12.108
752 47 1 23.133 21.918 12.973
753 48 1 26.988 21.918 0.000
754 48 1 26.988 21.918 0.865
755 48 1 26.988 21.918 1.730
756 48 1 26.988 21.918 2.595
757 48 1 26.988 21.918 3.459
758 48 1 26.988 21.918 4.324
759 48 1 26.988 21.918 5.189
760 48 1 26.988 21.918 6.054
761 48 1 26.988 21.918 6.919
762 48 1 26.988 21.918 7.784
763 48 1 26.988 21.918 8.649
764 48 1 26.988 21.918 9.514
765 48 1 26.988 21.918 10.378
766 48 1 26.988 21.918 11.243
767 48 1 26.988 21.918 12.108
768 48 1 26.988 21.918 12.973
769 49 1 0.000 26.301 0.000
770 49 1 0.000 26.301 0.865
771 49 1 0.000 26.301 1.730
772 49 1 0.000 26.301 2.595
773 49 1 0.000 26.301 3.459
774 49 1 0.000 26.301 4.324
775 49 1 0.000 26.301 5.189
776 49 1 0.000 26.301 6.054
777 49 1 0.000 26.301 6.919
778 49 1 0.000 26.301 7.784
779 49 1 0.000 26.301 8.649
780 49 1 0.000 26.301 9.514
781 49 1 0.000 26.301 10.378
782 49 1 0.000 26.301 11.243
783 49 1 0.000 26.301 12.108
784 49 1 0.000 26.301 12.973
785 50 1 3.855 26.301 0.000
786 50 1 3.855 26.301 0.865
787 50 1 3.855 26.301 1.730
788 50 1 3.855 26.301 2.595
789 50 1 3.855 26.301 3.459
790 50 1 3.855 26.301 4.324
791 50 1 3.855 26.301 5.189
792 50 1 3.855 26.301 6.054
793 50 1 3.855 26.301 6.919
794 50 1 3.855 26.301 7.784
795 50 1 3.855 26.301 8.649
796 50 1 3.855 26.301 9.514
797 50 1 3.855 26.301 10.378
798 50 1 3.855 26.301 11.243
799 50 1 3.855 26.301 12.108
800 50 1 3.855 26.301 12.973
801 51 1 7.711 26.301 0.000
802 51 1 7.711 26.301 0.865
803 51 1 7.711 26.301 1.730
804 51 1 7.711 26.301 2.595
805 51 1 7.711 26.301 3.459
806 51 1 7.711 26.301 4.324
807 51 1 7.711 26.301 5.189
808 51 1 7.711 26.301 6.054
809 51 1 7.711 26.301 6.919
810 51 1 7.711 26.301 7.784
811 51 1 7.711 26.301 8.649
812 51 1 7.711 26.301 9.514
813 51 1 7.711 26.301 10.378
814 51 1 7.711 26.301 11.243
815 51 1 7.711 26.301 12.108
816 51 1 7.711 26.301 12.973
817 52 1 11.566 26.301 0.000
818 52 1 11.566 26.301 0.865
819 52 1 11.566 26.301 1.730
820 52 1 11.566 26.301 2.595
821 52 1 11.566 26.301 3.459
822 52 1 11.566 26.301 4.324
823 52 1 11.566 26.301 5.189
824 52 1 11.566 26.301 6.054
825 52 1 11.566 26.301 6.919
826 52 1 11.566 26.301 7.784
827 52 1 11.566 26.301 8.649
828 52 1 11.566 26.301 9.514
829 52 1 11.566 26.301 10.378
830 52 1 11.566 26.301 11.243
831 52 1 11.566 26.301 12.108
832 52 1 11.566 26.301 12.973
833 53 1 15.422 26.301 0.000
834 53 1 15.422 26.301 0.865
835 53 1 15.422 26.301 1.730
836 53 1 15.422 26.301 2.595
837 53 1 15.422 26.301 3.459
838 53 1 15.422 26.301 4.324
839 53 1 15.422 26.301 5.189
840 53 1 15.422 26.301 6.054
841 53 1 15.422 26.301 6.919
842 53 1 15.422 26.301 7.784
843 53 1 15.422 26.301 8.649
844 53 1 15.422 26.301 9.514
845 53 1 15.422 26.301 10.378
846 53 1 15.422 26.301 11.243
847 53 1 15.422 26.301 12.108
848 53 1 15.422 26.301 12.973
849 54 1 19.277 26.301 0.000
850 54 1 19.277 26.301 0.865
851 54 1 19.277 26.301 1.730
852 54 1 19.277 26.301 2.595
853 54 1 19.277 26.301 3.459
854 54 1 19.277 26.301 4.324
855 54 1 19.277 26.301 5.189
856 54 1 19.277 26.301 6.054
857 54 1 19.277 26.301 6.919
858 54 1 19.277 26.301 7.784
859 54 1 19.277 26.301 8.649
860 54 1 19.277 26.301 9.514
861 54 1 19.277 26.301 10.378
862 54 1 19.277 26.301 11.243
863 54 1 19.277 26.301 12.108
864 54 1 19.277 26.301 12.973
865 55 1 23.133 26.301 0.000
866 55 1 23.133 26.301 0.865
867 55 1 23.133 26.301 1.730
868 55 1 23.133 26.301 2.595
869 55 1 23.133 26.301 3.459
870 55 1 23.133 26.301 4.324
871 55 1 23.133 26.301 5.189
872 55 1 23.133 26.301 6.054
873 55 1 23.133 26.301 6.919
874 55 1 23.133 26.301 7.784
875 55 1 23.133 26.301 8.649
876 55 1 23.133 26.301 9.514
877 55 1 23.133 26.301 10.378
878 55 1 23.133 26.301 11.243
879 55 1 23.133 26.301 12.108
880 55 1 23.133 26.301 12.973
881 56 1 26.988 26.301 0.000
882 56 1 26.988 26.301 0.865
883 56 1 26.988 26.301 1.730
884 56 1 26.988 26.301 2.595
885 56 1 26.988 26.301 3.459
886 56 1 26.988 26.301 4.324
887 56 1 26.988 26.301 5.189
888 56 1 26.988 26.301 6.054
889 56 1 26.988 26.301 6.919
890 56 1 26.988 26.301 7.784
891 56 1 26.988 26.301 8.649
892 56 1 26.988 26.301 9.514
893 56 1 26.988 26.301 10.378
894 56 1 26.988 26.301 11.243
895 56 1 26.988 26.301 12.108
896 56 1 26.988 26.301 12.973
897 57 2 1.928 2.192 17.297
898 57 2 1.928 2.192 18.162
899 57 2 1.928 2.192 19.027
900 57 2 1.928 2.192 19.892
901 57 2 1.928 2.192 20.757
902 57 2 1.928 2.192 21.622
903 57 2 1.928 2.192 22.486
904 57 2 1.928 2.192 23.351
905 57 2 1.928 2.192 24.216
906 57 2 1.928 2.192 25.081
907 57 2 1.928 2.192 25.946
908 57 2 1.928 2.192 26.811
909 57 2 1.928 2.192 27.676
910 57 2 1.928 2.192 28.541
911 57 2 1.928 2.192 29.405
912 57 2 1.928 2.192 30.270
913 58 2 5.783 2.192 17.297
914 58 2 5.783 2.192 18.162
915 58 2 5.783 2.192 19.027
916 58 2 5.783 2.192 19.892
917 58 2 5.783 2.192 20.757
918 58 2 5.783 2.192 21.622
919 58 2 5.783 2.192 22.486
920 58 2 5.783 2.192 23.351
921 58 2 5.783 2.192 24.216
922 58 2 5.783 2.192 25.081
923 58 2 5.783 2.192 25.946
924 58 2 5.783 2.192 26.811
925 58 2 5.783 2.192 27.676
926 58 2 5.783 2.192 28.541
927 58 2 5.783 2.192 29.405
928 58 2 5.783 2.192 30.270
929 59 2 9.639 2.192 17.297
930 59 2 9.639 2.192 18.162
931 59 2 9.639 2.192 19.027
932 59 2 9.639 2.192 19.892
933 59 2 9.639 2.192 20.757
934 59 2 9.639 2.192 21.622
935 59 2 9.639 2.192 22.486
936 59 2 9.639 2.192 23.351
937 59 2 9.639 2.192 24.216
938 59 2 9.639 2.192 25.081
939 59 2 9.639 2.192 25.946
940 59 2 9.639 2.192 26.811
941 59 2 9.639 2.192 27.676
942 59 2 9.639 2.192 28.541
943 59 2 9.639 2.192 29.405
944 59 2 9.639 2.192 30.270
945 60 2 13.494 2.192 17.297
946 60 2 13.494 2.192 18.162
947 60 2 13.494 2.192 19.027
948 60 2 13.494 2.192 19.892
949 60 2 13.494 2.192 20.757
950 60 2 13.494 2.192 21.622
951 60 2 13.494 2.192 22.486
952 60 2 13.494 2.192 23.351
953 60 2 13.494 2.192 24.216
954 60 2 13.494 2.192 25.081
955 60 2 13.494 2.192 25.946
956 60 2 13.494 2.192 26.811
957 60 2 13.494 2.192 27.676
958 60 2 13.494 2.192 28.541
959 60 2 13.494 2.192 29.405
960 60 2 13.494 2.192 30.270
961 61 2 17.349 2.192 17.297
962 61 2 17.349 2.192 18.162
963 61 2 17.349 2.192 19.027
964 61 2 17.349 2.192 19.892
965 61 2 17.349 2.192 20.757
966 61 2 17.349 2.192 21.622
967 61 2 17.349 2.192 22.486
968 61 2 17.349 2.192 23.351
969 61 2 17.349 2.192 24.216
970 61 2 17.349 2.192 25.081
971 61 2 17.349 2.192 25.946
972 61 2 17.349 2.192 26.811
973 61 2 17.349 2.192 27.676
974 61 2 17.349 2.192 28.541
975 61 2 17.349 2.192 29.405
976 61 2 17.349 2.192 30.270
977 62 2 21.205 2.192 17.297
978 62 2 21.205 2.192 18.162
979 62 2 21.205 2.192 19.027
980 62 2 21.205 2.192 19.892
981 62 2 21.205 2.192 20.757
982 62 2 21.205 2.192 21.622
983 62 2 21.205 2.192 22.486
984 62 2 21.205 2.192 23.351
985 62 2 21.205 2.192 24.216
986 62 2 21.205 2.192 25.081
987 62 2 21.205 2.192 25.946
988 62 2 21.205 2.192 26.811
989 62 2 21.205 2.192 27.676
990 62 2 21.205 2.192 28.541
991 62 2 21.205 2.192 29.405
992 62 2 21.205 2.192 30.270
993 63 2 25.060 2.192 17.297
994 63 2 25.060 2.192 18.162
995 63 2 25.060 2.192 19.027
996 63 2 25.060 2.192 19.892
997 63 2 25.060 2.192 20.757
998 63 2 25.060 2.192 21.622
999 63 2 25.060 2.192 22.486
1000 63 2 25.060 2.192 23.351
1001 63 2 25.060 2.192 24.216
1002 63 2 25.060 2.192 25.081
1003 63 2 25.060 2.192 25.946
1004 63 2 25.060 2.192 26.811
1005 63 2 25.060 2.192 27.676
1006 63 2 25.060 2.192 28.541
1007 63 2 25.060 2.192 29.405
1008 63 2 25.060 2.192 30.270
1009 64 2 28.916 2.192 17.297
1010 64 2 28.916 2.192 18.162
1011 64 2 28.916 2.192 19.027
1012 64 2 28.916 2.192 19.892
1013 64 2 28.916 2.192 20.757
1014 64 2 28.916 2.192 21.622
1015 64 2 28.916 2.192 22.486
1016 64 2 28.916 2.192 23.351
1017 64 2 28.916 2.192 24.216
1018 64 2 28.916 2.192 25.081
1019 64 2 28.916 2.192 25.946
1020 64 2 28.916 2.192 26.811
1021 64 2 28.916 2.192 27.676
1022 64 2 28.916 2.192 28.541
1023 64 2 28.916 2.192 29.405
1024 64 2 28.916 2.192 30.270
1025 65 2 1.928 6.575 17.297
1026 65 2 1.928 6.575 18.162
1027 65 2 1.928 6.575 19.027
1028 65 2 1.928 6.575 19.892
1029 65 2 1.928 6.575 20.757
1030 65 2 1.928 6.575 21.622
1031 65 2 1.928 6.575 22.486
1032 65 2 1.928 6.575 23.351
1033 65 2 1.928 6.575 24.216
1034 65 2 1.928 6.575 25.081
1035 65 2 1.928 6.575 25.946
1036 65 2 1.928 6.575 26.811
1037 65 2 1.928 6.575 27.676
1038 65 2 1.928 6.575 28.541
1039 65 2 1.928 6.575 29.405
1040 65 2 1.928 6.575 30.270
1041 66 2 5.783 6.575 17.297
1042 66 2 5.783 6.575 18.162
1043 66 2 5.783 6.575 19.027
1044 66 2 5.783 6.575 19.892
1045 66 2 5.783 6.575 20.757
1046 66 2 5.783 6.575 21.622
1047 66 2 5.783 6.575 22.486
1048 66 2 5.783 6.575 23.351
1049 66 2 5.783 6.575 24.216
1050 66 2 5.783 6.575 25.081
1051 66 2 5.783 6.575 25.946
1052 66 2 5.783 6.575 26.811
1053 66 2 5.783 6.575 27.676
1054 66 2 5.783 6.575 28.541