LAMMPS data file for polymer chains

3280 atoms
2870 bonds

2 atom types
1 bond types

0.0 32.0 xlo xhi
0.0 32.0 ylo yhi
0.0 32.0 zlo zhi

Masses

1 1.0  # Type A
2 1.0  # Type B

Atoms # molecular

1 1 1 0.000 0.000 0.000
2 1 1 0.000 0.000 1.524
3 1 1 0.000 0.000 3.048
4 1 1 0.000 0.000 4.571
5 1 1 0.000 0.000 6.095
6 1 1 0.000 0.000 7.619
7 1 1 0.000 0.000 9.143
8 1 1 0.000 0.000 10.667
9 2 1 2.092 0.000 0.000
10 2 1 2.092 0.000 1.524
11 2 1 2.092 0.000 3.048
12 2 1 2.092 0.000 4.571
13 2 1 2.092 0.000 6.095
14 2 1 2.092 0.000 7.619
15 2 1 2.092 0.000 9.143
16 2 1 2.092 0.000 10.667
17 3 1 4.183 0.000 0.000
18 3 1 4.183 0.000 1.524
19 3 1 4.183 0.000 3.048
20 3 1 4.183 0.000 4.571
21 3 1 4.183 0.000 6.095
22 3 1 4.183 0.000 7.619
23 3 1 4.183 0.000 9.143
24 3 1 4.183 0.000 10.667
25 4 1 6.275 0.000 0.000
26 4 1 6.275 0.000 1.524
27 4 1 6.275 0.000 3.048
28 4 1 6.275 0.000 4.571
29 4 1 6.275 0.000 6.095
30 4 1 6.275 0.000 7.619
31 4 1 6.275 0.000 9.143
32 4 1 6.275 0.000 10.667
33 5 1 8.366 0.000 0.000
34 5 1 8.366 0.000 1.524
35 5 1 8.366 0.000 3.048
36 5 1 8.366 0.000 4.571
37 5 1 8.366 0.000 6.095
38 5 1 8.366 0.000 7.619
39 5 1 8.366 0.000 9.143
40 5 1 8.366 0.000 10.667
41 6 1 10.458 0.000 0.000
42 6 1 10.458 0.000 1.524
43 6 1 10.458 0.000 3.048
44 6 1 10.458 0.000 4.571
45 6 1 10.458 0.000 6.095
46 6 1 10.458 0.000 7.619
47 6 1 10.458 0.000 9.143
48 6 1 10.458 0.000 10.667
49 7 1 12.549 0.000 0.000
50 7 1 12.549 0.000 1.524
51 7 1 12.549 0.000 3.048
52 7 1 12.549 0.000 4.571
53 7 1 12.549 0.000 6.095
54 7 1 12.549 0.000 7.619
55 7 1 12.549 0.000 9.143
56 7 1 12.549 0.000 10.667
57 8 1 14.641 0.000 0.000
58 8 1 14.641 0.000 1.524
59 8 1 14.641 0.000 3.048
60 8 1 14.641 0.000 4.571
61 8 1 14.641 0.000 6.095
62 8 1 14.641 0.000 7.619
63 8 1 14.641 0.000 9.143
64 8 1 14.641 0.000 10.667
65 9 1 16.732 0.000 0.000
66 9 1 16.732 0.000 1.524
67 9 1 16.732 0.000 3.048
68 9 1 16.732 0.000 4.571
69 9 1 16.732 0.000 6.095
70 9 1 16.732 0.000 7.619
71 9 1 16.732 0.000 9.143
72 9 1 16.732 0.000 10.667
73 10 1 18.824 0.000 0.000
74 10 1 18.824 0.000 1.524
75 10 1 18.824 0.000 3.048
76 10 1 18.824 0.000 4.571
77 10 1 18.824 0.000 6.095
78 10 1 18.824 0.000 7.619
79 10 1 18.824 0.000 9.143
80 10 1 18.824 0.000 10.667
81 11 1 20.915 0.000 0.000
82 11 1 20.915 0.000 1.524
83 11 1 20.915 0.000 3.048
84 11 1 20.915 0.000 4.571
85 11 1 20.915 0.000 6.095
86 11 1 20.915 0.000 7.619
87 11 1 20.915 0.000 9.143
88 11 1 20.915 0.000 10.667
89 12 1 23.007 0.000 0.000
90 12 1 23.007 0.000 1.524
91 12 1 23.007 0.000 3.048
92 12 1 23.007 0.000 4.571
93 12 1 23.007 0.000 6.095
94 12 1 23.007 0.000 7.619
95 12 1 23.007 0.000 9.143
96 12 1 23.007 0.000 10.667
97 13 1 25.098 0.000 0.000
98 13 1 25.098 0.000 1.524
99 13 1 25.098 0.000 3.048
100 13 1 25.098 0.000 4.571
101 13 1 25.098 0.000 6.095
102 13 1 25.098 0.000 7.619
103 13 1 25.098 0.000 9.143
104 13 1 25.098 0.000 10.667
105 14 1 27.190 0.000 0.000
106 14 1 27.190 0.000 1.524
107 14 1 27.190 0.000 3.048
108 14 1 27.190 0.000 4.571
109 14 1 27.190 0.000 6.095
110 14 1 27.190 0.000 7.619
111 14 1 27.190 0.000 9.143
112 14 1 27.190 0.000 10.667
113 15 1 29.281 0.000 0.000
114 15 1 29.281 0.000 1.524
115 15 1 29.281 0.000 3.048
116 15 1 29.281 0.000 4.571
117 15 1 29.281 0.000 6.095
118 15 1 29.281 0.000 7.619
119 15 1 29.281 0.000 9.143
120 15 1 29.281 0.000 10.667
121 16 1 0.000 2.238 0.000
122 16 1 0.000 2.238 1.524
123 16 1 0.000 2.238 3.048
124 16 1 0.000 2.238 4.571
125 16 1 0.000 2.238 6.095
126 16 1 0.000 2.238 7.619
127 16 1 0.000 2.238 9.143
128 16 1 0.000 2.238 10.667
129 17 1 2.092 2.238 0.000
130 17 1 2.092 2.238 1.524
131 17 1 2.092 2.238 3.048
132 17 1 2.092 2.238 4.571
133 17 1 2.092 2.238 6.095
134 17 1 2.092 2.238 7.619
135 17 1 2.092 2.238 9.143
136 17 1 2.092 2.238 10.667
137 18 1 4.183 2.238 0.000
138 18 1 4.183 2.238 1.524
139 18 1 4.183 2.238 3.048
140 18 1 4.183 2.238 4.571
141 18 1 4.183 2.238 6.095
142 18 1 4.183 2.238 7.619
143 18 1 4.183 2.238 9.143
144 18 1 4.183 2.238 10.667
145 19 1 6.275 2.238 0.000
146 19 1 6.275 2.238 1.524
147 19 1 6.275 2.238 3.048
148 19 1 6.275 2.238 4.571
149 19 1 6.275 2.238 6.095
150 19 1 6.275 2.238 7.619
151 19 1 6.275 2.238 9.143
152 19 1 6.275 2.238 10.667
153 20 1 8.366 2.238 0.000
154 20 1 8.366 2.238 1.524
155 20 1 8.366 2.238 3.048
156 20 1 8.366 2.238 4.571
157 20 1 8.366 2.238 6.095
158 20 1 8.366 2.238 7.619
159 20 1 8.366 2.238 9.143
160 20 1 8.366 2.238 10.667
161 21 1 10.458 2.238 0.000
162 21 1 10.458 2.238 1.524
163 21 1 10.458 2.238 3.048
164 21 1 10.458 2.238 4.571
165 21 1 10.458 2.238 6.095
166 21 1 10.458 2.238 7.619
167 21 1 10.458 2.238 9.143
168 21 1 10.458 2.238 10.667
169 22 1 12.549 2.238 0.000
170 22 1 12.549 2.238 1.524
171 22 1 12.549 2.238 3.048
172 22 1 12.549 2.238 4.571
173 22 1 12.549 2.238 6.095
174 22 1 12.549 2.238 7.619
175 22 1 12.549 2.238 9.143
176 22 1 12.549 2.238 10.667
177 23 1 14.641 2.238 0.000
178 23 1 14.641 2.238 1.524
179 23 1 14.641 2.238 3.048
180 23 1 14.641 2.238 4.571
181 23 1 14.641 2.238 6.095
182 23 1 14.641 2.238 7.619
183 23 1 14.641 2.238 9.143
184 23 1 14.641 2.238 10.667
185 24 1 16.732 2.238 0.000
186 24 1 16.732 2.238 1.524
187 24 1 16.732 2.238 3.048
188 24 1 16.732 2.238 4.571
189 24 1 16.732 2.238 6.095
190 24 1 16.732 2.238 7.619
191 24 1 16.732 2.238 9.143
192 24 1 16.732 2.238 10.667
193 25 1 18.824 2.238 0.000
194 25 1 18.824 2.238 1.524
195 25 1 18.824 2.238 3.048
196 25 1 18.824 2.238 4.571
197 25 1 18.824 2.238 6.095
198 25 1 18.824 2.238 7.619
199 25 1 18.824 2.238 9.143
200 25 1 18.824 2.238 10.667
201 26 1 20.915 2.238 0.000
202 26 1 20.915 2.238 1.524
203 26 1 20.915 2.238 3.048
204 26 1 20.915 2.238 4.571
205 26 1 20.915 2.238 6.095
206 26 1 20.915 2.238 7.619
207 26 1 20.915 2.238 9.143
208 26 1 20.915 2.238 10.667
209 27 1 23.007 2.238 0.000
210 27 1 23.007 2.238 1.524
211 27 1 23.007 2.238 3.048
212 27 1 23.007 2.238 4.571
213 27 1 23.007 2.238 6.095
214 27 1 23.007 2.238 7.619
215 27 1 23.007 2.238 9.143
216 27 1 23.007 2.238 10.667
217 28 1 25.098 2.238 0.000
218 28 1 25.098 2.238 1.524
219 28 1 25.098 2.238 3.048
220 28 1 25.098 2.238 4.571
221 28 1 25.098 2.238 6.095
222 28 1 25.098 2.238 7.619
223 28 1 25.098 2.238 9.143
224 28 1 25.098 2.238 10.667
225 29 1 27.190 2.238 0.000
226 29 1 27.190 2.238 1.524
227 29 1 27.190 2.238 3.048
228 29 1 27.190 2.238 4.571
229 29 1 27.190 2.238 6.095
230 29 1 27.190 2.238 7.619
231 29 1 27.190 2.238 9.143
232 29 1 27.190 2.238 10.667
233 30 1 29.281 2.238 0.000
234 30 1 29.281 2.238 1.524
235 30 1 29.281 2.238 3.048
236 30 1 29.281 2.238 4.571
237 30 1 29.281 2.238 6.095
238 30 1 29.281 2.238 7.619
239 30 1 29.281 2.238 9.143
240 30 1 29.281 2.238 10.667
241 31 1 0.000 4.476 0.000
242 31 1 0.000 4.476 1.524
243 31 1 0.000 4.476 3.048
244 31 1 0.000 4.476 4.571
245 31 1 0.000 4.476 6.095
246 31 1 0.000 4.476 7.619
247 31 1 0.000 4.476 9.143
248 31 1 0.000 4.476 10.667
249 32 1 2.092 4.476 0.000
250 32 1 2.092 4.476 1.524
251 32 1 2.092 4.476 3.048
252 32 1 2.092 4.476 4.571
253 32 1 2.092 4.476 6.095
254 32 1 2.092 4.476 7.619
255 32 1 2.092 4.476 9.143
256 32 1 2.092 4.476 10.667
257 33 1 4.183 4.476 0.000
258 33 1 4.183 4.476 1.524
259 33 1 4.183 4.476 3.048
260 33 1 4.183 4.476 4.571
261 33 1 4.183 4.476 6.095
262 33 1 4.183 4.476 7.619
263 33 1 4.183 4.476 9.143
264 33 1 4.183 4.476 10.667
265 34 1 6.275 4.476 0.000
266 34 1 6.275 4.476 1.524
267 34 1 6.275 4.476 3.048
268 34 1 6.275 4.476 4.571
269 34 1 6.275 4.476 6.095
270 34 1 6.275 4.476 7.619
271 34 1 6.275 4.476 9.143
272 34 1 6.275 4.476 10.667
273 35 1 8.366 4.476 0.000
274 35 1 8.366 4.476 1.524
275 35 1 8.366 4.476 3.048
276 35 1 8.366 4.476 4.571
277 35 1 8.366 4.476 6.095
278 35 1 8.366 4.476 7.619
279 35 1 8.366 4.476 9.143
280 35 1 8.366 4.476 10.667
281 36 1 10.458 4.476 0.000
282 36 1 10.458 4.476 1.524
283 36 1 10.458 4.476 3.048
284 36 1 10.458 4.476 4.571
285 36 1 10.458 4.476 6.095
286 36 1 10.458 4.476 7.619
287 36 1 10.458 4.476 9.143
288 36 1 10.458 4.476 10.667
289 37 1 12.549 4.476 0.000
290 37 1 12.549 4.476 1.524
291 37 1 12.549 4.476 3.048
292 37 1 12.549 4.476 4.571
293 37 1 12.549 4.476 6.095
294 37 1 12.549 4.476 7.619
295 37 1 12.549 4.476 9.143
296 37 1 12.549 4.476 10.667
297 38 1 14.641 4.476 0.000
298 38 1 14.641 4.476 1.524
299 38 1 14.641 4.476 3.048
300 38 1 14.641 4.476 4.571
301 38 1 14.641 4.476 6.095
302 38 1 14.641 4.476 7.619
303 38 1 14.641 4.476 9.143
304 38 1 14.641 4.476 10.667
305 39 1 16.732 4.476 0.000
306 39 1 16.732 4.476 1.524
307 39 1 16.732 4.476 3.048
308 39 1 16.732 4.476 4.571
309 39 1 16.732 4.476 6.095
310 39 1 16.732 4.476 7.619
311 39 1 16.732 4.476 9.143
312 39 1 16.732 4.476 10.667
313 40 1 18.824 4.476 0.000
314 40 1 18.824 4.476 1.524
315 40 1 18.824 4.476 3.048
316 40 1 18.824 4.476 4.571
317 40 1 18.824 4.476 6.095
318 40 1 18.824 4.476 7.619
319 40 1 18.824 4.476 9.143
320 40 1 18.824 4.476 10.667
321 41 1 20.915 4.476 0.000
322 41 1 20.915 4.476 1.524
323 41 1 20.915 4.476 3.048
324 41 1 20.915 4.476 4.571
325 41 1 20.915 4.476 6.095
326 41 1 20.915 4.476 7.619
327 41 1 20.915 4.476 9.143
328 41 1 20.915 4.476 10.667
329 42 1 23.007 4.476 0.000
330 42 1 23.007 4.476 1.524
331 42 1 23.007 4.476 3.048
332 42 1 23.007 4.476 4.571
333 42 1 23.007 4.476 6.095
334 42 1 23.007 4.476 7.619
335 42 1 23.007 4.476 9.143
336 42 1 23.007 4.476 10.667
337 43 1 25.098 4.476 0.000
338 43 1 25.098 4.476 1.524
339 43 1 25.098 4.476 3.048
340 43 1 25.098 4.476 4.571
341 43 1 25.098 4.476 6.095
342 43 1 25.098 4.476 7.619
343 43 1 25.098 4.476 9.143
344 43 1 25.098 4.476 10.667
345 44 1 27.190 4.476 0.000
346 44 1 27.190 4.476 1.524
347 44 1 27.190 4.476 3.048
348 44 1 27.190 4.476 4.571
349 44 1 27.190 4.476 6.095
350 44 1 27.190 4.476 7.619
351 44 1 27.190 4.476 9.143
352 44 1 27.190 4.476 10.667
353 45 1 29.281 4.476 0.000
354 45 1 29.281 4.476 1.524
355 45 1 29.281 4.476 3.048
356 45 1 29.281 4.476 4.571
357 45 1 29.281 4.476 6.095
358 45 1 29.281 4.476 7.619
359 45 1 29.281 4.476 9.143
360 45 1 29.281 4.476 10.667
361 46 1 0.000 6.713 0.000
362 46 1 0.000 6.713 1.524
363 46 1 0.000 6.713 3.048
364 46 1 0.000 6.713 4.571
365 46 1 0.000 6.713 6.095
366 46 1 0.000 6.713 7.619
367 46 1 0.000 6.713 9.143
368 46 1 0.000 6.713 10.667
369 47 1 2.092 6.713 0.000
370 47 1 2.092 6.713 1.524
371 47 1 2.092 6.713 3.048
372 47 1 2.092 6.713 4.571
373 47 1 2.092 6.713 6.095
374 47 1 2.092 6.713 7.619
375 47 1 2.092 6.713 9.143
376 47 1 2.092 6.713 10.667
377 48 1 4.183 6.713 0.000
378 48 1 4.183 6.713 1.524
379 48 1 4.183 6.713 3.048
380 48 1 4.183 6.713 4.571
381 48 1 4.183 6.713 6.095
382 48 1 4.183 6.713 7.619
383 48 1 4.183 6.713 9.143
384 48 1 4.183 6.713 10.667
385 49 1 6.275 6.713 0.000
386 49 1 6.275 6.713 1.524
387 49 1 6.275 6.713 3.048
388 49 1 6.275 6.713 4.571
389 49 1 6.275 6.713 6.095
390 49 1 6.275 6.713 7.619
391 49 1 6.275 6.713 9.143
392 49 1 6.275 6.713 10.667
393 50 1 8.366 6.713 0.000
394 50 1 8.366 6.713 1.524
395 50 1 8.366 6.713 3.048
396 50 1 8.366 6.713 4.571
397 50 1 8.366 6.713 6.095
398 50 1 8.366 6.713 7.619
399 50 1 8.366 6.713 9.143
400 50 1 8.366 6.713 10.667
401 51 1 10.458 6.713 0.000
402 51 1 10.458 6.713 1.524
403 51 1 10.458 6.713 3.048
404 51 1 10.458 6.713 4.571
405 51 1 10.458 6.713 6.095
406 51 1 10.458 6.713 7.619
407 51 1 10.458 6.713 9.143
408 51 1 10.458 6.713 10.667
409 52 1 12.549 6.713 0.000
410 52 1 12.549 6.713 1.524
411 52 1 12.549 6.713 3.048
412 52 1 12.549 6.713 4.571
413 52 1 12.549 6.713 6.095
414 52 1 12.549 6.713 7.619
415 52 1 12.549 6.713 9.143
416 52 1 12.549 6.713 10.667
417 53 1 14.641 6.713 0.000
418 53 1 14.641 6.713 1.524
419 53 1 14.641 6.713 3.048
420 53 1 14.641 6.713 4.571
421 53 1 14.641 6.713 6.095
422 53 1 14.641 6.713 7.619
423 53 1 14.641 6.713 9.143
424 53 1 14.641 6.713 10.667
425 54 1 16.732 6.713 0.000
426 54 1 16.732 6.713 1.524
427 54 1 16.732 6.713 3.048
428 54 1 16.732 6.713 4.571
429 54 1 16.732 6.713 6.095
430 54 1 16.732 6.713 7.619
431 54 1 16.732 6.713 9.143
432 54 1 16.732 6.713 10.667
433 55 1 18.824 6.713 0.000
434 55 1 18.824 6.713 1.524
435 55 1 18.824 6.713 3.048
436 55 1 18.824 6.713 4.571
437 55 1 18.824 6.713 6.095
438 55 1 18.824 6.713 7.619
439 55 1 18.824 6.713 9.143
440 55 1 18.824 6.713 10.667
441 56 1 20.915 6.713 0.000
442 56 1 20.915 6.713 1.524
443 56 1 20.915 6.713 3.048
444 56 1 20.915 6.713 4.571
445 56 1 20.915 6.713 6.095
446 56 1 20.915 6.713 7.619
447 56 1 20.915 6.713 9.143
448 56 1 20.915 6.713 10.667
449 57 1 23.007 6.713 0.000
450 57 1 23.007 6.713 1.524
451 57 1 23.007 6.713 3.048
452 57 1 23.007 6.713 4.571
453 57 1 23.007 6.713 6.095
454 57 1 23.007 6.713 7.619
455 57 1 23.007 6.713 9.143
456 57 1 23.007 6.713 10.667
457 58 1 25.098 6.713 0.000
458 58 1 25.098 6.713 1.524
459 58 1 25.098 6.713 3.048
460 58 1 25.098 6.713 4.571
461 58 1 25.098 6.713 6.095
462 58 1 25.098 6.713 7.619
463 58 1 25.098 6.713 9.143
464 58 1 25.098 6.713 10.667
465 59 1 27.190 6.713 0.000
466 59 1 27.190 6.713 1.524
467 59 1 27.190 6.713 3.048
468 59 1 27.190 6.713 4.571
469 59 1 27.190 6.713 6.095
470 59 1 27.190 6.713 7.619
471 59 1 27.190 6.713 9.143
472 59 1 27.190 6.713 10.667
473 60 1 29.281 6.713 0.000
474 60 1 29.281 6.713 1.524
475 60 1 29.281 6.713 3.048
476 60 1 29.281 6.713 4.571
477 60 1 29.281 6.713 6.095
478 60 1 29.281 6.713 7.619
479 60 1 29.281 6.713 9.143
480 60 1 29.281 6.713 10.667
481 61 1 0.000 8.951 0.000
482 61 1 0.000 8.951 1.524
483 61 1 0.000 8.951 3.048
484 61 1 0.000 8.951 4.571
485 61 1 0.000 8.951 6.095
486 61 1 0.000 8.951 7.619
487 61 1 0.000 8.951 9.143
488 61 1 0.000 8.951 10.667
489 62 1 2.092 8.951 0.000
490 62 1 2.092 8.951 1.524
491 62 1 2.092 8.951 3.048
492 62 1 2.092 8.951 4.571
493 62 1 2.092 8.951 6.095
494 62 1 2.092 8.951 7.619
495 62 1 2.092 8.951 9.143
496 62 1 2.092 8.951 10.667
497 63 1 4.183 8.951 0.000
498 63 1 4.183 8.951 1.524
499 63 1 4.183 8.951 3.048
500 63 1 4.183 8.951 4.571
501 63 1 4.183 8.951 6.095
502 63 1 4.183 8.951 7.619
503 63 1 4.183 8.951 9.143
504 63 1 4.183 8.951 10.667
505 64 1 6.275 8.951 0.000
506 64 1 6.275 8.951 1.524
507 64 1 6.275 8.951 3.048
508 64 1 6.275 8.951 4.571
509 64 1 6.275 8.951 6.095
510 64 1 6.275 8.951 7.619
511 64 1 6.275 8.951 9.143
512 64 1 6.275 8.951 10.667
513 65 1 8.366 8.951 0.000
514 65 1 8.366 8.951 1.524
515 65 1 8.366 8.951 3.048
516 65 1 8.366 8.951 4.571
517 65 1 8.366 8.951 6.095
518 65 1 8.366 8.951 7.619
519 65 1 8.366 8.951 9.143
520 65 1 8.366 8.951 10.667
521 66 1 10.458 8.951 0.000
522 66 1 10.458 8.951 1.524
523 66 1 10.458 8.951 3.048
524 66 1 10.458 8.951 4.571
525 66 1 10.458 8.951 6.095
526 66 1 10.458 8.951 7.619
527 66 1 10.458 8.951 9.143
528 66 1 10.458 8.951 10.667
529 67 1 12.549 8.951 0.000
530 67 1 12.549 8.951 1.524
531 67 1 12.549 8.951 3.048
532 67 1 12.549 8.951 4.571
533 67 1 12.549 8.951 6.095
534 67 1 12.549 8.951 7.619
535 67 1 12.549 8.951 9.143
536 67 1 12.549 8.951 10.667
537 68 1 14.641 8.951 0.000
538 68 1 14.641 8.951 1.524
539 68 1 14.641 8.951 3.048
540 68 1 14.641 8.951 4.571
541 68 1 14.641 8.951 6.095
542 68 1 14.641 8.951 7.619
543 68 1 14.641 8.951 9.143
544 68 1 14.641 8.951 10.667
545 69 1 16.732 8.951 0.000
546 69 1 16.732 8.951 1.524
547 69 1 16.732 8.951 3.048
548 69 1 16.732 8.951 4.571
549 69 1 16.732 8.951 6.095
550 69 1 16.732 8.951 7.619
551 69 1 16.732 8.951 9.143
552 69 1 16.732 8.951 10.667
553 70 1 18.824 8.951 0.000
554 70 1 18.824 8.951 1.524
555 70 1 18.824 8.951 3.048
556 70 1 18.824 8.951 4.571
557 70 1 18.824 8.951 6.095
558 70 1 18.824 8.951 7.619
559 70 1 18.824 8.951 9.143
560 70 1 18.824 8.951 10.667
561 71 1 20.915 8.951 0.000
562 71 1 20.915 8.951 1.524
563 71 1 20.915 8.951 3.048
564 71 1 20.915 8.951 4.571
565 71 1 20.915 8.951 6.095
566 71 1 20.915 8.951 7.619
567 71 1 20.915 8.951 9.143
568 71 1 20.915 8.951 10.667
569 72 1 23.007 8.951 0.000
570 72 1 23.007 8.951 1.524
571 72 1 23.007 8.951 3.048
572 72 1 23.007 8.951 4.571
573 72 1 23.007 8.951 6.095
574 72 1 23.007 8.951 7.619
575 72 1 23.007 8.951 9.143
576 72 1 23.007 8.951 10.667
577 73 1 25.098 8.951 0.000
578 73 1 25.098 8.951 1.524
579 73 1 25.098 8.951 3.048
580 73 1 25.098 8.951 4.571
581 73 1 25.098 8.951 6.095
582 73 1 25.098 8.951 7.619
583 73 1 25.098 8.951 9.143
584 73 1 25.098 8.951 10.667
585 74 1 27.190 8.951 0.000
586 74 1 27.190 8.951 1.524
587 74 1 27.190 8.951 3.048
588 74 1 27.190 8.951 4.571
589 74 1 27.190 8.951 6.095
590 74 1 27.190 8.951 7.619
591 74 1 27.190 8.951 9.143
592 74 1 27.190 8.951 10.667
593 75 1 29.281 8.951 0.000
594 75 1 29.281 8.951 1.524
595 75 1 29.281 8.951 3.048
596 75 1 29.281 8.951 4.571
597 75 1 29.281 8.951 6.095
598 75 1 29.281 8.951 7.619
599 75 1 29.281 8.951 9.143
600 75 1 29.281 8.951 10.667
601 76 1 0.000 11.189 0.000
602 76 1 0.000 11.189 1.524
603 76 1 0.000 11.189 3.048
604 76 1 0.000 11.189 4.571
605 76 1 0.000 11.189 6.095
606 76 1 0.000 11.189 7.619
607 76 1 0.000 11.189 9.143
608 76 1 0.000 11.189 10.667
609 77 1 2.092 11.189 0.000
610 77 1 2.092 11.189 1.524
611 77 1 2.092 11.189 3.048
612 77 1 2.092 11.189 4.571
613 77 1 2.092 11.189 6.095
614 77 1 2.092 11.189 7.619
615 77 1 2.092 11.189 9.143
616 77 1 2.092 11.189 10.667
617 78 1 4.183 11.189 0.000
618 78 1 4.183 11.189 1.524
619 78 1 4.183 11.189 3.048
620 78 1 4.183 11.189 4.571
621 78 1 4.183 11.189 6.095
622 78 1 4.183 11.189 7.619
623 78 1 4.183 11.189 9.143
624 78 1 4.183 11.189 10.667
625 79 1 6.275 11.189 0.000
626 79 1 6.275 11.189 1.524
627 79 1 6.275 11.189 3.048
628 79 1 6.275 11.189 4.571
629 79 1 6.275 11.189 6.095
630 79 1 6.275 11.189 7.619
631 79 1 6.275 11.189 9.143
632 79 1 6.275 11.189 10.667
633 80 1 8.366 11.189 0.000
634 80 1 8.366 11.189 1.524
635 80 1 8.366 11.189 3.048
636 80 1 8.366 11.189 4.571
637 80 1 8.366 11.189 6.095
638 80 1 8.366 11.189 7.619
639 80 1 8.366 11.189 9.143
640 80 1 8.366 11.189 10.667
641 81 1 10.458 11.189 0.000
642 81 1 10.458 11.189 1.524
643 81 1 10.458 11.189 3.048
644 81 1 10.458 11.189 4.571
645 81 1 10.458 11.189 6.095
646 81 1 10.458 11.189 7.619
647 81 1 10.458 11.189 9.143
648 81 1 10.458 11.189 10.667
649 82 1 12.549 11.189 0.000
650 82 1 12.549 11.189 1.524
651 82 1 12.549 11.189 3.048
652 82 1 12.549 11.189 4.571
653 82 1 12.549 11.189 6.095
654 82 1 12.549 11.189 7.619
655 82 1 12.549 11.189 9.143
656 82 1 12.549 11.189 10.667
657 83 1 14.641 11.189 0.000
658 83 1 14.641 11.189 1.524
659 83 1 14.641 11.189 3.048
660 83 1 14.641 11.189 4.571
661 83 1 14.641 11.189 6.095
662 83 1 14.641 11.189 7.619
663 83 1 14.641 11.189 9.143
664 83 1 14.641 11.189 10.667
665 84 1 16.732 11.189 0.000
666 84 1 16.732 11.189 1.524
667 84 1 16.732 11.189 3.048
668 84 1 16.732 11.189 4.571
669 84 1 16.732 11.189 6.095
670 84 1 16.732 11.189 7.619
671 84 1 16.732 11.189 9.143
672 84 1 16.732 11.189 10.667
673 85 1 18.824 11.189 0.000
674 85 1 18.824 11.189 1.524
675 85 1 18.824 11.189 3.048
676 85 1 18.824 11.189 4.571
677 85 1 18.824 11.189 6.095
678 85 1 18.824 11.189 7.619
679 85 1 18.824 11.189 9.143
680 85 1 18.824 11.189 10.667
681 86 1 20.915 11.189 0.000
682 86 1 20.915 11.189 1.524
683 86 1 20.915 11.189 3.048
684 86 1 20.915 11.189 4.571
685 86 1 20.915 11.189 6.095
686 86 1 20.915 11.189 7.619
687 86 1 20.915 11.189 9.143
688 86 1 20.915 11.189 10.667
689 87 1 23.007 11.189 0.000
690 87 1 23.007 11.189 1.524
691 87 1 23.007 11.189 3.048
692 87 1 23.007 11.189 4.571
693 87 1 23.007 11.189 6.095
694 87 1 23.007 11.189 7.619
695 87 1 23.007 11.189 9.143
696 87 1 23.007 11.189 10.667
697 88 1 25.098 11.189 0.000
698 88 1 25.098 11.189 1.524
699 88 1 25.098 11.189 3.048
700 88 1 25.098 11.189 4.571
701 88 1 25.098 11.189 6.095
702 88 1 25.098 11.189 7.619
703 88 1 25.098 11.189 9.143
704 88 1 25.098 11.189 10.667
705 89 1 27.190 11.189 0.000
706 89 1 27.190 11.189 1.524
707 89 1 27.190 11.189 3.048
708 89 1 27.190 11.189 4.571
709 89 1 27.190 11.189 6.095
710 89 1 27.190 11.189 7.619
711 89 1 27.190 11.189 9.143
712 89 1 27.190 11.189 10.667
713 90 1 29.281 11.189 0.000
714 90 1 29.281 11.189 1.524
715 90 1 29.281 11.189 3.048
716 90 1 29.281 11.189 4.571
717 90 1 29.281 11.189 6.095
718 90 1 29.281 11.189 7.619
719 90 1 29.281 11.189 9.143
720 90 1 29.281 11.189 10.667
721 91 1 0.000 13.427 0.000
722 91 1 0.000 13.427 1.524
723 91 1 0.000 13.427 3.048
724 91 1 0.000 13.427 4.571
725 91 1 0.000 13.427 6.095
726 91 1 0.000 13.427 7.619
727 91 1 0.000 13.427 9.143
728 91 1 0.000 13.427 10.667
729 92 1 2.092 13.427 0.000
730 92 1 2.092 13.427 1.524
731 92 1 2.092 13.427 3.048
732 92 1 2.092 13.427 4.571
733 92 1 2.092 13.427 6.095
734 92 1 2.092 13.427 7.619
735 92 1 2.092 13.427 9.143
736 92 1 2.092 13.427 10.667
737 93 1 4.183 13.427 0.000
738 93 1 4.183 13.427 1.524
739 93 1 4.183 13.427 3.048
740 93 1 4.183 13.427 4.571
741 93 1 4.183 13.427 6.095
742 93 1 4.183 13.427 7.619
743 93 1 4.183 13.427 9.143
744 93 1 4.183 13.427 10.667
745 94 1 6.275 13.427 0.000
746 94 1 6.275 13.427 1.524
747 94 1 6.275 13.427 3.048
748 94 1 6.275 13.427 4.571
749 94 1 6.275 13.427 6.095
750 94 1 6.275 13.427 7.619
751 94 1 6.275 13.427 9.143
752 94 1 6.275 13.427 10.667
753 95 1 8.366 13.427 0.000
754 95 1 8.366 13.427 1.524
755 95 1 8.366 13.427 3.048
756 95 1 8.366 13.427 4.571
757 95 1 8.366 13.427 6.095
758 95 1 8.366 13.427 7.619
759 95 1 8.366 13.427 9.143
760 95 1 8.366 13.427 10.667
761 96 1 10.458 13.427 0.000
762 96 1 10.458 13.427 1.524
763 96 1 10.458 13.427 3.048
764 96 1 10.458 13.427 4.571
765 96 1 10.458 13.427 6.095
766 96 1 10.458 13.427 7.619
767 96 1 10.458 13.427 9.143
768 96 1 10.458 13.427 10.667
769 97 1 12.549 13.427 0.000
770 97 1 12.549 13.427 1.524
771 97 1 12.549 13.427 3.048
772 97 1 12.549 13.427 4.571
773 97 1 12.549 13.427 6.095
774 97 1 12.549 13.427 7.619
775 97 1 12.549 13.427 9.143
776 97 1 12.549 13.427 10.667
777 98 1 14.641 13.427 0.000
778 98 1 14.641 13.427 1.524
779 98 1 14.641 13.427 3.048
780 98 1 14.641 13.427 4.571
781 98 1 14.641 13.427 6.095
782 98 1 14.641 13.427 7.619
783 98 1 14.641 13.427 9.143
784 98 1 14.641 13.427 10.667
785 99 1 16.732 13.427 0.000
786 99 1 16.732 13.427 1.524
787 99 1 16.732 13.427 3.048
788 99 1 16.732 13.427 4.571
789 99 1 16.732 13.427 6.095
790 99 1 16.732 13.427 7.619
791 99 1 16.732 13.427 9.143
792 99 1 16.732 13.427 10.667
793 100 1 18.824 13.427 0.000
794 100 1 18.824 13.427 1.524
795 100 1 18.824 13.427 3.048
796 100 1 18.824 13.427 4.571
797 100 1 18.824 13.427 6.095
798 100 1 18.824 13.427 7.619
799 100 1 18.824 13.427 9.143
800 100 1 18.824 13.427 10.667
801 101 1 20.915 13.427 0.000
802 101 1 20.915 13.427 1.524
803 101 1 20.915 13.427 3.048
804 101 1 20.915 13.427 4.571
805 101 1 20.915 13.427 6.095
806 101 1 20.915 13.427 7.619
807 101 1 20.915 13.427 9.143
808 101 1 20.915 13.427 10.667
809 102 1 23.007 13.427 0.000
810 102 1 23.007 13.427 1.524
811 102 1 23.007 13.427 3.048
812 102 1 23.007 13.427 4.571
813 102 1 23.007 13.427 6.095
814 102 1 23.007 13.427 7.619
815 102 1 23.007 13.427 9.143
816 102 1 23.007 13.427 10.667
817 103 1 25.098 13.427 0.000
818 103 1 25.098 13.427 1.524
819 103 1 25.098 13.427 3.048
820 103 1 25.098 13.427 4.571
821 103 1 25.098 13.427 6.095
822 103 1 25.098 13.427 7.619
823 103 1 25.098 13.427 9.143
824 103 1 25.098 13.427 10.667
825 104 1 27.190 13.427 0.000
826 104 1 27.190 13.427 1.524
827 104 1 27.190 13.427 3.048
828 104 1 27.190 13.427 4.571
829 104 1 27.190 13.427 6.095
830 104 1 27.190 13.427 7.619
831 104 1 27.190 13.427 9.143
832 104 1 27.190 13.427 10.667
833 105 1 29.281 13.427 0.000
834 105 1 29.281 13.427 1.524
835 105 1 29.281 13.427 3.048
836 105 1 29.281 13.427 4.571
837 105 1 29.281 13.427 6.095
838 105 1 29.281 13.427 7.619
839 105 1 29.281 13.427 9.143
840 105 1 29.281 13.427 10.667
841 106 1 0.000 15.664 0.000
842 106 1 0.000 15.664 1.524
843 106 1 0.000 15.664 3.048
844 106 1 0.000 15.664 4.571
845 106 1 0.000 15.664 6.095
846 106 1 0.000 15.664 7.619
847 106 1 0.000 15.664 9.143
848 106 1 0.000 15.664 10.667
849 107 1 2.092 15.664 0.000
850 107 1 2.092 15.664 1.524
851 107 1 2.092 15.664 3.048
852 107 1 2.092 15.664 4.571
853 107 1 2.092 15.664 6.095
854 107 1 2.092 15.664 7.619
855 107 1 2.092 15.664 9.143
856 107 1 2.092 15.664 10.667
857 108 1 4.183 15.664 0.000
858 108 1 4.183 15.664 1.524
859 108 1 4.183 15.664 3.048
860 108 1 4.183 15.664 4.571
861 108 1 4.183 15.664 6.095
862 108 1 4.183 15.664 7.619
863 108 1 4.183 15.664 9.143
864 108 1 4.183 15.664 10.667
865 109 1 6.275 15.664 0.000
866 109 1 6.275 15.664 1.524
867 109 1 6.275 15.664 3.048
868 109 1 6.275 15.664 4.571
869 109 1 6.275 15.664 6.095
870 109 1 6.275 15.664 7.619
871 109 1 6.275 15.664 9.143
872 109 1 6.275 15.664 10.667
873 110 1 8.366 15.664 0.000
874 110 1 8.366 15.664 1.524
875 110 1 8.366 15.664 3.048
876 110 1 8.366 15.664 4.571
877 110 1 8.366 15.664 6.095
878 110 1 8.366 15.664 7.619
879 110 1 8.366 15.664 9.143
880 110 1 8.366 15.664 10.667
881 111 1 10.458 15.664 0.000
882 111 1 10.458 15.664 1.524
883 111 1 10.458 15.664 3.048
884 111 1 10.458 15.664 4.571
885 111 1 10.458 15.664 6.095
886 111 1 10.458 15.664 7.619
887 111 1 10.458 15.664 9.143
888 111 1 10.458 15.664 10.667
889 112 1 12.549 15.664 0.000
890 112 1 12.549 15.664 1.524
891 112 1 12.549 15.664 3.048
892 112 1 12.549 15.664 4.571
893 112 1 12.549 15.664 6.095
894 112 1 12.549 15.664 7.619
895 112 1 12.549 15.664 9.143
896 112 1 12.549 15.664 10.667
897 113 1 14.641 15.664 0.000
898 113 1 14.641 15.664 1.524
899 113 1 14.641 15.664 3.048
900 113 1 14.641 15.664 4.571
901 113 1 14.641 15.664 6.095
902 113 1 14.641 15.664 7.619
903 113 1 14.641 15.664 9.143
904 113 1 14.641 15.664 10.667
905 114 1 16.732 15.664 0.000
906 114 1 16.732 15.664 1.524
907 114 1 16.732 15.664 3.048
908 114 1 16.732 15.664 4.571
909 114 1 16.732 15.664 6.095
910 114 1 16.732 15.664 7.619
911 114 1 16.732 15.664 9.143
912 114 1 16.732 15.664 10.667
913 115 1 18.824 15.664 0.000
914 115 1 18.824 15.664 1.524
915 115 1 18.824 15.664 3.048
916 115 1 18.824 15.664 4.571
917 115 1 18.824 15.664 6.095
918 115 1 18.824 15.664 7.619
919 115 1 18.824 15.664 9.143
920 115 1 18.824 15.664 10.667
921 116 1 20.915 15.664 0.000
922 116 1 20.915 15.664 1.524
923 116 1 20.915 15.664 3.048
924 116 1 20.915 15.664 4.571
925 116 1 20.915 15.664 6.095
926 116 1 20.915 15.664 7.619
927 116 1 20.915 15.664 9.143
928 116 1 20.915 15.664 10.667
929 117 1 23.007 15.664 0.000
930 117 1 23.007 15.664 1.524
931 117 1 23.007 15.664 3.048
932 117 1 23.007 15.664 4.571
933 117 1 23.007 15.664 6.095
934 117 1 23.007 15.664 7.619
935 117 1 23.007 15.664 9.143
936 117 1 23.007 15.664 10.667
937 118 1 25.098 15.664 0.000
938 118 1 25.098 15.664 1.524
939 118 1 25.098 15.664 3.048
940 118 1 25.098 15.664 4.571
941 118 1 25.098 15.664 6.095
942 118 1 25.098 15.664 7.619
943 118 1 25.098 15.664 9.143
944 118 1 25.098 15.664 10.667
945 119 1 27.190 15.664 0.000
946 119 1 27.190 15.664 1.524
947 119 1 27.190 15.664 3.048
948 119 1 27.190 15.664 4.571
949 119 1 27.190 15.664 6.095
950 119 1 27.190 15.664 7.619
951 119 1 27.190 15.664 9.143
952 119 1 27.190 15.664 10.667
953 120 1 29.281 15.664 0.000
954 120 1 29.281 15.664 1.524
955 120 1 29.281 15.664 3.048
956 120 1 29.281 15.664 4.571
957 120 1 29.281 15.664 6.095
958 120 1 29.281 15.664 7.619
959 120 1 29.281 15.664 9.143
960 120 1 29.281 15.664 10.667
961 121 1 0.000 17.902 0.000
962 121 1 0.000 17.902 1.524
963 121 1 0.000 17.902 3.048
964 121 1 0.000 17.902 4.571
965 121 1 0.000 17.902 6.095
966 121 1 0.000 17.902 7.619
967 121 1 0.000 17.902 9.143
968 121 1 0.000 17.902 10.667
969 122 1 2.092 17.902 0.000
970 122 1 2.092 17.902 1.524
971 122 1 2.092 17.902 3.048
972 122 1 2.092 17.902 4.571
973 122 1 2.092 17.902 6.095
974 122 1 2.092 17.902 7.619
975 122 1 2.092 17.902 9.143
976 122 1 2.092 17.902 10.667
977 123 1 4.183 17.902 0.000
978 123 1 4.183 17.902 1.524
979 123 1 4.183 17.902 3.048
980 123 1 4.183 17.902 4.571
981 123 1 4.183 17.902 6.095
982 123 1 4.183 17.902 7.619
983 123 1 4.183 17.902 9.143
984 123 1 4.183 17.902 10.667
985 124 1 6.275 17.902 0.000
986 124 1 6.275 17.902 1.524
987 124 1 6.275 17.902 3.048
988 124 1 6.275 17.902 4.571
989 124 1 6.275 17.902 6.095
990 124 1 6.275 17.902 7.619
991 124 1 6.275 17.902 9.143
992 124 1 6.275 17.902 10.667
993 125 1 8.366 17.902 0.000
994 125 1 8.366 17.902 1.524
995 125 1 8.366 17.902 3.048
996 125 1 8.366 17.902 4.571
997 125 1 8.366 17.902 6.095
998 125 1 8.366 17.902 7.619
999 125 1 8.366 17.902 9.143
1000 125 1 8.366 17.902 10.667
1001 126 1 10.458 17.902 0.000
1002 126 1 10.458 17.902 1.524
1003 126 1 10.458 17.902 3.048
1004 126 1 10.458 17.902 4.571
1005 126 1 10.458 17.902 6.095
1006 126 1 10.458 17.902 7.619
1007 126 1 10.458 17.902 9.143
1008 126 1 10.458 17.902 10.667
1009 127 1 12.549 17.902 0.000
1010 127 1 12.549 17.902 1.524
1011 127 1 12.549 17.902 3.048
1012 127 1 12.549 17.902 4.571
1013 127 1 12.549 17.902 6.095
1014 127 1 12.549 17.902 7.619
1015 127 1 12.549 17.902 9.143
1016 127 1 12.549 17.902 10.667
1017 128 1 14.641 17.902 0.000
1018 128 1 14.641 17.902 1.524
1019 128 1 14.641 17.902 3.048
1020 128 1 14.641 17.902 4.571
1021 128 1 14.641 17.902 6.095
1022 128 1 14.641 17.902 7.619
1023 128 1 14.641 17.902 9.143
1024 128 1 14.641 17.902 10.667
1025 129 1 16.732 17.902 0.000
1026 129 1 16.732 17.902 1.524
1027 129 1 16.732 17.902 3.048
1028 129 1 16.732 17.902 4.571
1029 129 1 16.732 17.902 6.095
1030 129 1 16.732 17.902 7.619
1031 129 1 16.732 17.902 9.143
1032 129 1 16.732 17.902 10.667
1033 130 1 18.824 17.902 0.000
1034 130 1 18.824 17.902 1.524
1035 130 1 18.824 17.902 3.048
1036 130 1 18.824 17.902 4.571
1037 130 1 18.824 17.902 6.095
1038 130 1 18.824 17.902 7.619
1039 130 1 18.824 17.902 9.143
1040 130 1 18.824 17.902 10.667
1041 131 1 20.915 17.902 0.000
1042 131 1 20.915 17.902 1.524
1043 131 1 20.915 17.902 3.048
1044 131 1 20.915 17.902 4.571
1045 131 1 20.915 17.902 6.095
1046 131 1 20.915 17.902 7.619
1047 131 1 20.915 17.902 9.143
1048 131 1 20.915 17.902 10.667
1049 132 1 23.007 17.902 0.000
1050 132 1 23.007 17.902 1.524
1051 132 1 23.007 17.902 3.048