LAMMPS data file for polymer chains

1080 atoms
1020 bonds

2 atom types
1 bond types

0.0 32.0 xlo xhi
0.0 32.0 ylo yhi
0.0 32.0 zlo zhi

Masses

1 1.0  # Type A
2 1.0  # Type B

Atoms # molecular

1 1 1 0.000 0.000 0.000
2 1 1 0.000 0.000 0.780
3 1 1 0.000 0.000 1.561
4 1 1 0.000 0.000 2.341
5 1 1 0.000 0.000 3.122
6 1 1 0.000 0.000 3.902
7 1 1 0.000 0.000 4.683
8 1 1 0.000 0.000 5.463
9 1 1 0.000 0.000 6.244
10 1 1 0.000 0.000 7.024
11 1 1 0.000 0.000 7.805
12 1 1 0.000 0.000 8.585
13 1 1 0.000 0.000 9.366
14 1 1 0.000 0.000 10.146
15 1 1 0.000 0.000 10.927
16 1 1 0.000 0.000 11.707
17 1 1 0.000 0.000 12.488
18 1 1 0.000 0.000 13.268
19 2 1 5.079 0.000 0.000
20 2 1 5.079 0.000 0.780
21 2 1 5.079 0.000 1.561
22 2 1 5.079 0.000 2.341
23 2 1 5.079 0.000 3.122
24 2 1 5.079 0.000 3.902
25 2 1 5.079 0.000 4.683
26 2 1 5.079 0.000 5.463
27 2 1 5.079 0.000 6.244
28 2 1 5.079 0.000 7.024
29 2 1 5.079 0.000 7.805
30 2 1 5.079 0.000 8.585
31 2 1 5.079 0.000 9.366
32 2 1 5.079 0.000 10.146
33 2 1 5.079 0.000 10.927
34 2 1 5.079 0.000 11.707
35 2 1 5.079 0.000 12.488
36 2 1 5.079 0.000 13.268
37 3 1 10.159 0.000 0.000
38 3 1 10.159 0.000 0.780
39 3 1 10.159 0.000 1.561
40 3 1 10.159 0.000 2.341
41 3 1 10.159 0.000 3.122
42 3 1 10.159 0.000 3.902
43 3 1 10.159 0.000 4.683
44 3 1 10.159 0.000 5.463
45 3 1 10.159 0.000 6.244
46 3 1 10.159 0.000 7.024
47 3 1 10.159 0.000 7.805
48 3 1 10.159 0.000 8.585
49 3 1 10.159 0.000 9.366
50 3 1 10.159 0.000 10.146
51 3 1 10.159 0.000 10.927
52 3 1 10.159 0.000 11.707
53 3 1 10.159 0.000 12.488
54 3 1 10.159 0.000 13.268
55 4 1 15.238 0.000 0.000
56 4 1 15.238 0.000 0.780
57 4 1 15.238 0.000 1.561
58 4 1 15.238 0.000 2.341
59 4 1 15.238 0.000 3.122
60 4 1 15.238 0.000 3.902
61 4 1 15.238 0.000 4.683
62 4 1 15.238 0.000 5.463
63 4 1 15.238 0.000 6.244
64 4 1 15.238 0.000 7.024
65 4 1 15.238 0.000 7.805
66 4 1 15.238 0.000 8.585
67 4 1 15.238 0.000 9.366
68 4 1 15.238 0.000 10.146
69 4 1 15.238 0.000 10.927
70 4 1 15.238 0.000 11.707
71 4 1 15.238 0.000 12.488
72 4 1 15.238 0.000 13.268
73 5 1 20.317 0.000 0.000
74 5 1 20.317 0.000 0.780
75 5 1 20.317 0.000 1.561
76 5 1 20.317 0.000 2.341
77 5 1 20.317 0.000 3.122
78 5 1 20.317 0.000 3.902
79 5 1 20.317 0.000 4.683
80 5 1 20.317 0.000 5.463
81 5 1 20.317 0.000 6.244
82 5 1 20.317 0.000 7.024
83 5 1 20.317 0.000 7.805
84 5 1 20.317 0.000 8.585
85 5 1 20.317 0.000 9.366
86 5 1 20.317 0.000 10.146
87 5 1 20.317 0.000 10.927
88 5 1 20.317 0.000 11.707
89 5 1 20.317 0.000 12.488
90 5 1 20.317 0.000 13.268
91 6 1 25.397 0.000 0.000
92 6 1 25.397 0.000 0.780
93 6 1 25.397 0.000 1.561
94 6 1 25.397 0.000 2.341
95 6 1 25.397 0.000 3.122
96 6 1 25.397 0.000 3.902
97 6 1 25.397 0.000 4.683
98 6 1 25.397 0.000 5.463
99 6 1 25.397 0.000 6.244
100 6 1 25.397 0.000 7.024
101 6 1 25.397 0.000 7.805
102 6 1 25.397 0.000 8.585
103 6 1 25.397 0.000 9.366
104 6 1 25.397 0.000 10.146
105 6 1 25.397 0.000 10.927
106 6 1 25.397 0.000 11.707
107 6 1 25.397 0.000 12.488
108 6 1 25.397 0.000 13.268
109 7 1 0.000 6.038 0.000
110 7 1 0.000 6.038 0.780
111 7 1 0.000 6.038 1.561
112 7 1 0.000 6.038 2.341
113 7 1 0.000 6.038 3.122
114 7 1 0.000 6.038 3.902
115 7 1 0.000 6.038 4.683
116 7 1 0.000 6.038 5.463
117 7 1 0.000 6.038 6.244
118 7 1 0.000 6.038 7.024
119 7 1 0.000 6.038 7.805
120 7 1 0.000 6.038 8.585
121 7 1 0.000 6.038 9.366
122 7 1 0.000 6.038 10.146
123 7 1 0.000 6.038 10.927
124 7 1 0.000 6.038 11.707
125 7 1 0.000 6.038 12.488
126 7 1 0.000 6.038 13.268
127 8 1 5.079 6.038 0.000
128 8 1 5.079 6.038 0.780
129 8 1 5.079 6.038 1.561
130 8 1 5.079 6.038 2.341
131 8 1 5.079 6.038 3.122
132 8 1 5.079 6.038 3.902
133 8 1 5.079 6.038 4.683
134 8 1 5.079 6.038 5.463
135 8 1 5.079 6.038 6.244
136 8 1 5.079 6.038 7.024
137 8 1 5.079 6.038 7.805
138 8 1 5.079 6.038 8.585
139 8 1 5.079 6.038 9.366
140 8 1 5.079 6.038 10.146
141 8 1 5.079 6.038 10.927
142 8 1 5.079 6.038 11.707
143 8 1 5.079 6.038 12.488
144 8 1 5.079 6.038 13.268
145 9 1 10.159 6.038 0.000
146 9 1 10.159 6.038 0.780
147 9 1 10.159 6.038 1.561
148 9 1 10.159 6.038 2.341
149 9 1 10.159 6.038 3.122
150 9 1 10.159 6.038 3.902
151 9 1 10.159 6.038 4.683
152 9 1 10.159 6.038 5.463
153 9 1 10.159 6.038 6.244
154 9 1 10.159 6.038 7.024
155 9 1 10.159 6.038 7.805
156 9 1 10.159 6.038 8.585
157 9 1 10.159 6.038 9.366
158 9 1 10.159 6.038 10.146
159 9 1 10.159 6.038 10.927
160 9 1 10.159 6.038 11.707
161 9 1 10.159 6.038 12.488
162 9 1 10.159 6.038 13.268
163 10 1 15.238 6.038 0.000
164 10 1 15.238 6.038 0.780
165 10 1 15.238 6.038 1.561
166 10 1 15.238 6.038 2.341
167 10 1 15.238 6.038 3.122
168 10 1 15.238 6.038 3.902
169 10 1 15.238 6.038 4.683
170 10 1 15.238 6.038 5.463
171 10 1 15.238 6.038 6.244
172 10 1 15.238 6.038 7.024
173 10 1 15.238 6.038 7.805
174 10 1 15.238 6.038 8.585
175 10 1 15.238 6.038 9.366
176 10 1 15.238 6.038 10.146
177 10 1 15.238 6.038 10.927
178 10 1 15.238 6.038 11.707
179 10 1 15.238 6.038 12.488
180 10 1 15.238 6.038 13.268
181 11 1 20.317 6.038 0.000
182 11 1 20.317 6.038 0.780
183 11 1 20.317 6.038 1.561
184 11 1 20.317 6.038 2.341
185 11 1 20.317 6.038 3.122
186 11 1 20.317 6.038 3.902
187 11 1 20.317 6.038 4.683
188 11 1 20.317 6.038 5.463
189 11 1 20.317 6.038 6.244
190 11 1 20.317 6.038 7.024
191 11 1 20.317 6.038 7.805
192 11 1 20.317 6.038 8.585
193 11 1 20.317 6.038 9.366
194 11 1 20.317 6.038 10.146
195 11 1 20.317 6.038 10.927
196 11 1 20.317 6.038 11.707
197 11 1 20.317 6.038 12.488
198 11 1 20.317 6.038 13.268
199 12 1 25.397 6.038 0.000
200 12 1 25.397 6.038 0.780
201 12 1 25.397 6.038 1.561
202 12 1 25.397 6.038 2.341
203 12 1 25.397 6.038 3.122
204 12 1 25.397 6.038 3.902
205 12 1 25.397 6.038 4.683
206 12 1 25.397 6.038 5.463
207 12 1 25.397 6.038 6.244
208 12 1 25.397 6.038 7.024
209 12 1 25.397 6.038 7.805
210 12 1 25.397 6.038 8.585
211 12 1 25.397 6.038 9.366
212 12 1 25.397 6.038 10.146
213 12 1 25.397 6.038 10.927
214 12 1 25.397 6.038 11.707
215 12 1 25.397 6.038 12.488
216 12 1 25.397 6.038 13.268
217 13 1 0.000 12.075 0.000
218 13 1 0.000 12.075 0.780
219 13 1 0.000 12.075 1.561
220 13 1 0.000 12.075 2.341
221 13 1 0.000 12.075 3.122
222 13 1 0.000 12.075 3.902
223 13 1 0.000 12.075 4.683
224 13 1 0.000 12.075 5.463
225 13 1 0.000 12.075 6.244
226 13 1 0.000 12.075 7.024
227 13 1 0.000 12.075 7.805
228 13 1 0.000 12.075 8.585
229 13 1 0.000 12.075 9.366
230 13 1 0.000 12.075 10.146
231 13 1 0.000 12.075 10.927
232 13 1 0.000 12.075 11.707
233 13 1 0.000 12.075 12.488
234 13 1 0.000 12.075 13.268
235 14 1 5.079 12.075 0.000
236 14 1 5.079 12.075 0.780
237 14 1 5.079 12.075 1.561
238 14 1 5.079 12.075 2.341
239 14 1 5.079 12.075 3.122
240 14 1 5.079 12.075 3.902
241 14 1 5.079 12.075 4.683
242 14 1 5.079 12.075 5.463
243 14 1 5.079 12.075 6.244
244 14 1 5.079 12.075 7.024
245 14 1 5.079 12.075 7.805
246 14 1 5.079 12.075 8.585
247 14 1 5.079 12.075 9.366
248 14 1 5.079 12.075 10.146
249 14 1 5.079 12.075 10.927
250 14 1 5.079 12.075 11.707
251 14 1 5.079 12.075 12.488
252 14 1 5.079 12.075 13.268
253 15 1 10.159 12.075 0.000
254 15 1 10.159 12.075 0.780
255 15 1 10.159 12.075 1.561
256 15 1 10.159 12.075 2.341
257 15 1 10.159 12.075 3.122
258 15 1 10.159 12.075 3.902
259 15 1 10.159 12.075 4.683
260 15 1 10.159 12.075 5.463
261 15 1 10.159 12.075 6.244
262 15 1 10.159 12.075 7.024
263 15 1 10.159 12.075 7.805
264 15 1 10.159 12.075 8.585
265 15 1 10.159 12.075 9.366
266 15 1 10.159 12.075 10.146
267 15 1 10.159 12.075 10.927
268 15 1 10.159 12.075 11.707
269 15 1 10.159 12.075 12.488
270 15 1 10.159 12.075 13.268
271 16 1 15.238 12.075 0.000
272 16 1 15.238 12.075 0.780
273 16 1 15.238 12.075 1.561
274 16 1 15.238 12.075 2.341
275 16 1 15.238 12.075 3.122
276 16 1 15.238 12.075 3.902
277 16 1 15.238 12.075 4.683
278 16 1 15.238 12.075 5.463
279 16 1 15.238 12.075 6.244
280 16 1 15.238 12.075 7.024
281 16 1 15.238 12.075 7.805
282 16 1 15.238 12.075 8.585
283 16 1 15.238 12.075 9.366
284 16 1 15.238 12.075 10.146
285 16 1 15.238 12.075 10.927
286 16 1 15.238 12.075 11.707
287 16 1 15.238 12.075 12.488
288 16 1 15.238 12.075 13.268
289 17 1 20.317 12.075 0.000
290 17 1 20.317 12.075 0.780
291 17 1 20.317 12.075 1.561
292 17 1 20.317 12.075 2.341
293 17 1 20.317 12.075 3.122
294 17 1 20.317 12.075 3.902
295 17 1 20.317 12.075 4.683
296 17 1 20.317 12.075 5.463
297 17 1 20.317 12.075 6.244
298 17 1 20.317 12.075 7.024
299 17 1 20.317 12.075 7.805
300 17 1 20.317 12.075 8.585
301 17 1 20.317 12.075 9.366
302 17 1 20.317 12.075 10.146
303 17 1 20.317 12.075 10.927
304 17 1 20.317 12.075 11.707
305 17 1 20.317 12.075 12.488
306 17 1 20.317 12.075 13.268
307 18 1 25.397 12.075 0.000
308 18 1 25.397 12.075 0.780
309 18 1 25.397 12.075 1.561
310 18 1 25.397 12.075 2.341
311 18 1 25.397 12.075 3.122
312 18 1 25.397 12.075 3.902
313 18 1 25.397 12.075 4.683
314 18 1 25.397 12.075 5.463
315 18 1 25.397 12.075 6.244
316 18 1 25.397 12.075 7.024
317 18 1 25.397 12.075 7.805
318 18 1 25.397 12.075 8.585
319 18 1 25.397 12.075 9.366
320 18 1 25.397 12.075 10.146
321 18 1 25.397 12.075 10.927
322 18 1 25.397 12.075 11.707
323 18 1 25.397 12.075 12.488
324 18 1 25.397 12.075 13.268
325 19 1 0.000 18.113 0.000
326 19 1 0.000 18.113 0.780
327 19 1 0.000 18.113 1.561
328 19 1 0.000 18.113 2.341
329 19 1 0.000 18.113 3.122
330 19 1 0.000 18.113 3.902
331 19 1 0.000 18.113 4.683
332 19 1 0.000 18.113 5.463
333 19 1 0.000 18.113 6.244
334 19 1 0.000 18.113 7.024
335 19 1 0.000 18.113 7.805
336 19 1 0.000 18.113 8.585
337 19 1 0.000 18.113 9.366
338 19 1 0.000 18.113 10.146
339 19 1 0.000 18.113 10.927
340 19 1 0.000 18.113 11.707
341 19 1 0.000 18.113 12.488
342 19 1 0.000 18.113 13.268
343 20 1 5.079 18.113 0.000
344 20 1 5.079 18.113 0.780
345 20 1 5.079 18.113 1.561
346 20 1 5.079 18.113 2.341
347 20 1 5.079 18.113 3.122
348 20 1 5.079 18.113 3.902
349 20 1 5.079 18.113 4.683
350 20 1 5.079 18.113 5.463
351 20 1 5.079 18.113 6.244
352 20 1 5.079 18.113 7.024
353 20 1 5.079 18.113 7.805
354 20 1 5.079 18.113 8.585
355 20 1 5.079 18.113 9.366
356 20 1 5.079 18.113 10.146
357 20 1 5.079 18.113 10.927
358 20 1 5.079 18.113 11.707
359 20 1 5.079 18.113 12.488
360 20 1 5.079 18.113 13.268
361 21 1 10.159 18.113 0.000
362 21 1 10.159 18.113 0.780
363 21 1 10.159 18.113 1.561
364 21 1 10.159 18.113 2.341
365 21 1 10.159 18.113 3.122
366 21 1 10.159 18.113 3.902
367 21 1 10.159 18.113 4.683
368 21 1 10.159 18.113 5.463
369 21 1 10.159 18.113 6.244
370 21 1 10.159 18.113 7.024
371 21 1 10.159 18.113 7.805
372 21 1 10.159 18.113 8.585
373 21 1 10.159 18.113 9.366
374 21 1 10.159 18.113 10.146
375 21 1 10.159 18.113 10.927
376 21 1 10.159 18.113 11.707
377 21 1 10.159 18.113 12.488
378 21 1 10.159 18.113 13.268
379 22 1 15.238 18.113 0.000
380 22 1 15.238 18.113 0.780
381 22 1 15.238 18.113 1.561
382 22 1 15.238 18.113 2.341
383 22 1 15.238 18.113 3.122
384 22 1 15.238 18.113 3.902
385 22 1 15.238 18.113 4.683
386 22 1 15.238 18.113 5.463
387 22 1 15.238 18.113 6.244
388 22 1 15.238 18.113 7.024
389 22 1 15.238 18.113 7.805
390 22 1 15.238 18.113 8.585
391 22 1 15.238 18.113 9.366
392 22 1 15.238 18.113 10.146
393 22 1 15.238 18.113 10.927
394 22 1 15.238 18.113 11.707
395 22 1 15.238 18.113 12.488
396 22 1 15.238 18.113 13.268
397 23 1 20.317 18.113 0.000
398 23 1 20.317 18.113 0.780
399 23 1 20.317 18.113 1.561
400 23 1 20.317 18.113 2.341
401 23 1 20.317 18.113 3.122
402 23 1 20.317 18.113 3.902
403 23 1 20.317 18.113 4.683
404 23 1 20.317 18.113 5.463
405 23 1 20.317 18.113 6.244
406 23 1 20.317 18.113 7.024
407 23 1 20.317 18.113 7.805
408 23 1 20.317 18.113 8.585
409 23 1 20.317 18.113 9.366
410 23 1 20.317 18.113 10.146
411 23 1 20.317 18.113 10.927
412 23 1 20.317 18.113 11.707
413 23 1 20.317 18.113 12.488
414 23 1 20.317 18.113 13.268
415 24 1 25.397 18.113 0.000
416 24 1 25.397 18.113 0.780
417 24 1 25.397 18.113 1.561
418 24 1 25.397 18.113 2.341
419 24 1 25.397 18.113 3.122
420 24 1 25.397 18.113 3.902
421 24 1 25.397 18.113 4.683
422 24 1 25.397 18.113 5.463
423 24 1 25.397 18.113 6.244
424 24 1 25.397 18.113 7.024
425 24 1 25.397 18.113 7.805
426 24 1 25.397 18.113 8.585
427 24 1 25.397 18.113 9.366
428 24 1 25.397 18.113 10.146
429 24 1 25.397 18.113 10.927
430 24 1 25.397 18.113 11.707
431 24 1 25.397 18.113 12.488
432 24 1 25.397 18.113 13.268
433 25 1 0.000 24.151 0.000
434 25 1 0.000 24.151 0.780
435 25 1 0.000 24.151 1.561
436 25 1 0.000 24.151 2.341
437 25 1 0.000 24.151 3.122
438 25 1 0.000 24.151 3.902
439 25 1 0.000 24.151 4.683
440 25 1 0.000 24.151 5.463
441 25 1 0.000 24.151 6.244
442 25 1 0.000 24.151 7.024
443 25 1 0.000 24.151 7.805
444 25 1 0.000 24.151 8.585
445 25 1 0.000 24.151 9.366
446 25 1 0.000 24.151 10.146
447 25 1 0.000 24.151 10.927
448 25 1 0.000 24.151 11.707
449 25 1 0.000 24.151 12.488
450 25 1 0.000 24.151 13.268
451 26 1 5.079 24.151 0.000
452 26 1 5.079 24.151 0.780
453 26 1 5.079 24.151 1.561
454 26 1 5.079 24.151 2.341
455 26 1 5.079 24.151 3.122
456 26 1 5.079 24.151 3.902
457 26 1 5.079 24.151 4.683
458 26 1 5.079 24.151 5.463
459 26 1 5.079 24.151 6.244
460 26 1 5.079 24.151 7.024
461 26 1 5.079 24.151 7.805
462 26 1 5.079 24.151 8.585
463 26 1 5.079 24.151 9.366
464 26 1 5.079 24.151 10.146
465 26 1 5.079 24.151 10.927
466 26 1 5.079 24.151 11.707
467 26 1 5.079 24.151 12.488
468 26 1 5.079 24.151 13.268
469 27 1 10.159 24.151 0.000
470 27 1 10.159 24.151 0.780
471 27 1 10.159 24.151 1.561
472 27 1 10.159 24.151 2.341
473 27 1 10.159 24.151 3.122
474 27 1 10.159 24.151 3.902
475 27 1 10.159 24.151 4.683
476 27 1 10.159 24.151 5.463
477 27 1 10.159 24.151 6.244
478 27 1 10.159 24.151 7.024
479 27 1 10.159 24.151 7.805
480 27 1 10.159 24.151 8.585
481 27 1 10.159 24.151 9.366
482 27 1 10.159 24.151 10.146
483 27 1 10.159 24.151 10.927
484 27 1 10.159 24.151 11.707
485 27 1 10.159 24.151 12.488
486 27 1 10.159 24.151 13.268
487 28 1 15.238 24.151 0.000
488 28 1 15.238 24.151 0.780
489 28 1 15.238 24.151 1.561
490 28 1 15.238 24.151 2.341
491 28 1 15.238 24.151 3.122
492 28 1 15.238 24.151 3.902
493 28 1 15.238 24.151 4.683
494 28 1 15.238 24.151 5.463
495 28 1 15.238 24.151 6.244
496 28 1 15.238 24.151 7.024
497 28 1 15.238 24.151 7.805
498 28 1 15.238 24.151 8.585
499 28 1 15.238 24.151 9.366
500 28 1 15.238 24.151 10.146
501 28 1 15.238 24.151 10.927
502 28 1 15.238 24.151 11.707
503 28 1 15.238 24.151 12.488
504 28 1 15.238 24.151 13.268
505 29 1 20.317 24.151 0.000
506 29 1 20.317 24.151 0.780
507 29 1 20.317 24.151 1.561
508 29 1 20.317 24.151 2.341
509 29 1 20.317 24.151 3.122
510 29 1 20.317 24.151 3.902
511 29 1 20.317 24.151 4.683
512 29 1 20.317 24.151 5.463
513 29 1 20.317 24.151 6.244
514 29 1 20.317 24.151 7.024
515 29 1 20.317 24.151 7.805
516 29 1 20.317 24.151 8.585
517 29 1 20.317 24.151 9.366
518 29 1 20.317 24.151 10.146
519 29 1 20.317 24.151 10.927
520 29 1 20.317 24.151 11.707
521 29 1 20.317 24.151 12.488
522 29 1 20.317 24.151 13.268
523 30 1 25.397 24.151 0.000
524 30 1 25.397 24.151 0.780
525 30 1 25.397 24.151 1.561
526 30 1 25.397 24.151 2.341
527 30 1 25.397 24.151 3.122
528 30 1 25.397 24.151 3.902
529 30 1 25.397 24.151 4.683
530 30 1 25.397 24.151 5.463
531 30 1 25.397 24.151 6.244
532 30 1 25.397 24.151 7.024
533 30 1 25.397 24.151 7.805
534 30 1 25.397 24.151 8.585
535 30 1 25.397 24.151 9.366
536 30 1 25.397 24.151 10.146
537 30 1 25.397 24.151 10.927
538 30 1 25.397 24.151 11.707
539 30 1 25.397 24.151 12.488
540 30 1 25.397 24.151 13.268
541 31 2 2.540 3.019 17.171
542 31 2 2.540 3.019 17.951
543 31 2 2.540 3.019 18.732
544 31 2 2.540 3.019 19.512
545 31 2 2.540 3.019 20.293
546 31 2 2.540 3.019 21.073
547 31 2 2.540 3.019 21.854
548 31 2 2.540 3.019 22.634
549 31 2 2.540 3.019 23.415
550 31 2 2.540 3.019 24.195
551 31 2 2.540 3.019 24.976
552 31 2 2.540 3.019 25.756
553 31 2 2.540 3.019 26.537
554 31 2 2.540 3.019 27.317
555 31 2 2.540 3.019 28.098
556 31 2 2.540 3.019 28.878
557 31 2 2.540 3.019 29.659
558 31 2 2.540 3.019 30.439
559 32 2 7.619 3.019 17.171
560 32 2 7.619 3.019 17.951
561 32 2 7.619 3.019 18.732
562 32 2 7.619 3.019 19.512
563 32 2 7.619 3.019 20.293
564 32 2 7.619 3.019 21.073
565 32 2 7.619 3.019 21.854
566 32 2 7.619 3.019 22.634
567 32 2 7.619 3.019 23.415
568 32 2 7.619 3.019 24.195
569 32 2 7.619 3.019 24.976
570 32 2 7.619 3.019 25.756
571 32 2 7.619 3.019 26.537
572 32 2 7.619 3.019 27.317
573 32 2 7.619 3.019 28.098
574 32 2 7.619 3.019 28.878
575 32 2 7.619 3.019 29.659
576 32 2 7.619 3.019 30.439
577 33 2 12.698 3.019 17.171
578 33 2 12.698 3.019 17.951
579 33 2 12.698 3.019 18.732
580 33 2 12.698 3.019 19.512
581 33 2 12.698 3.019 20.293
582 33 2 12.698 3.019 21.073
583 33 2 12.698 3.019 21.854
584 33 2 12.698 3.019 22.634
585 33 2 12.698 3.019 23.415
586 33 2 12.698 3.019 24.195
587 33 2 12.698 3.019 24.976
588 33 2 12.698 3.019 25.756
589 33 2 12.698 3.019 26.537
590 33 2 12.698 3.019 27.317
591 33 2 12.698 3.019 28.098
592 33 2 12.698 3.019 28.878
593 33 2 12.698 3.019 29.659
594 33 2 12.698 3.019 30.439
595 34 2 17.778 3.019 17.171
596 34 2 17.778 3.019 17.951
597 34 2 17.778 3.019 18.732
598 34 2 17.778 3.019 19.512
599 34 2 17.778 3.019 20.293
600 34 2 17.778 3.019 21.073
601 34 2 17.778 3.019 21.854
602 34 2 17.778 3.019 22.634
603 34 2 17.778 3.019 23.415
604 34 2 17.778 3.019 24.195
605 34 2 17.778 3.019 24.976
606 34 2 17.778 3.019 25.756
607 34 2 17.778 3.019 26.537
608 34 2 17.778 3.019 27.317
609 34 2 17.778 3.019 28.098
610 34 2 17.778 3.019 28.878
611 34 2 17.778 3.019 29.659
612 34 2 17.778 3.019 30.439
613 35 2 22.857 3.019 17.171
614 35 2 22.857 3.019 17.951
615 35 2 22.857 3.019 18.732
616 35 2 22.857 3.019 19.512
617 35 2 22.857 3.019 20.293
618 35 2 22.857 3.019 21.073
619 35 2 22.857 3.019 21.854
620 35 2 22.857 3.019 22.634
621 35 2 22.857 3.019 23.415
622 35 2 22.857 3.019 24.195
623 35 2 22.857 3.019 24.976
624 35 2 22.857 3.019 25.756
625 35 2 22.857 3.019 26.537
626 35 2 22.857 3.019 27.317
627 35 2 22.857 3.019 28.098
628 35 2 22.857 3.019 28.878
629 35 2 22.857 3.019 29.659
630 35 2 22.857 3.019 30.439
631 36 2 27.937 3.019 17.171
632 36 2 27.937 3.019 17.951
633 36 2 27.937 3.019 18.732
634 36 2 27.937 3.019 19.512
635 36 2 27.937 3.019 20.293
636 36 2 27.937 3.019 21.073
637 36 2 27.937 3.019 21.854
638 36 2 27.937 3.019 22.634
639 36 2 27.937 3.019 23.415
640 36 2 27.937 3.019 24.195
641 36 2 27.937 3.019 24.976
642 36 2 27.937 3.019 25.756
643 36 2 27.937 3.019 26.537
644 36 2 27.937 3.019 27.317
645 36 2 27.937 3.019 28.098
646 36 2 27.937 3.019 28.878
647 36 2 27.937 3.019 29.659
648 36 2 27.937 3.019 30.439
649 37 2 2.540 9.057 17.171
650 37 2 2.540 9.057 17.951
651 37 2 2.540 9.057 18.732
652 37 2 2.540 9.057 19.512
653 37 2 2.540 9.057 20.293
654 37 2 2.540 9.057 21.073
655 37 2 2.540 9.057 21.854
656 37 2 2.540 9.057 22.634
657 37 2 2.540 9.057 23.415
658 37 2 2.540 9.057 24.195
659 37 2 2.540 9.057 24.976
660 37 2 2.540 9.057 25.756
661 37 2 2.540 9.057 26.537
662 37 2 2.540 9.057 27.317
663 37 2 2.540 9.057 28.098
664 37 2 2.540 9.057 28.878
665 37 2 2.540 9.057 29.659
666 37 2 2.540 9.057 30.439
667 38 2 7.619 9.057 17.171
668 38 2 7.619 9.057 17.951
669 38 2 7.619 9.057 18.732
670 38 2 7.619 9.057 19.512
671 38 2 7.619 9.057 20.293
672 38 2 7.619 9.057 21.073
673 38 2 7.619 9.057 21.854
674 38 2 7.619 9.057 22.634
675 38 2 7.619 9.057 23.415
676 38 2 7.619 9.057 24.195
677 38 2 7.619 9.057 24.976
678 38 2 7.619 9.057 25.756
679 38 2 7.619 9.057 26.537
680 38 2 7.619 9.057 27.317
681 38 2 7.619 9.057 28.098
682 38 2 7.619 9.057 28.878
683 38 2 7.619 9.057 29.659
684 38 2 7.619 9.057 30.439
685 39 2 12.698 9.057 17.171
686 39 2 12.698 9.057 17.951
687 39 2 12.698 9.057 18.732
688 39 2 12.698 9.057 19.512
689 39 2 12.698 9.057 20.293
690 39 2 12.698 9.057 21.073
691 39 2 12.698 9.057 21.854
692 39 2 12.698 9.057 22.634
693 39 2 12.698 9.057 23.415
694 39 2 12.698 9.057 24.195
695 39 2 12.698 9.057 24.976
696 39 2 12.698 9.057 25.756
697 39 2 12.698 9.057 26.537
698 39 2 12.698 9.057 27.317
699 39 2 12.698 9.057 28.098
700 39 2 12.698 9.057 28.878
701 39 2 12.698 9.057 29.659
702 39 2 12.698 9.057 30.439
703 40 2 17.778 9.057 17.171
704 40 2 17.778 9.057 17.951
705 40 2 17.778 9.057 18.732
706 40 2 17.778 9.057 19.512
707 40 2 17.778 9.057 20.293
708 40 2 17.778 9.057 21.073
709 40 2 17.778 9.057 21.854
710 40 2 17.778 9.057 22.634
711 40 2 17.778 9.057 23.415
712 40 2 17.778 9.057 24.195
713 40 2 17.778 9.057 24.976
714 40 2 17.778 9.057 25.756
715 40 2 17.778 9.057 26.537
716 40 2 17.778 9.057 27.317
717 40 2 17.778 9.057 28.098
718 40 2 17.778 9.057 28.878
719 40 2 17.778 9.057 29.659
720 40 2 17.778 9.057 30.439
721 41 2 22.857 9.057 17.171
722 41 2 22.857 9.057 17.951
723 41 2 22.857 9.057 18.732
724 41 2 22.857 9.057 19.512
725 41 2 22.857 9.057 20.293
726 41 2 22.857 9.057 21.073
727 41 2 22.857 9.057 21.854
728 41 2 22.857 9.057 22.634
729 41 2 22.857 9.057 23.415
730 41 2 22.857 9.057 24.195
731 41 2 22.857 9.057 24.976
732 41 2 22.857 9.057 25.756
733 41 2 22.857 9.057 26.537
734 41 2 22.857 9.057 27.317
735 41 2 22.857 9.057 28.098
736 41 2 22.857 9.057 28.878
737 41 2 22.857 9.057 29.659
738 41 2 22.857 9.057 30.439
739 42 2 27.937 9.057 17.171
740 42 2 27.937 9.057 17.951
741 42 2 27.937 9.057 18.732
742 42 2 27.937 9.057 19.512
743 42 2 27.937 9.057 20.293
744 42 2 27.937 9.057 21.073
745 42 2 27.937 9.057 21.854
746 42 2 27.937 9.057 22.634
747 42 2 27.937 9.057 23.415
748 42 2 27.937 9.057 24.195
749 42 2 27.937 9.057 24.976
750 42 2 27.937 9.057 25.756
751 42 2 27.937 9.057 26.537
752 42 2 27.937 9.057 27.317
753 42 2 27.937 9.057 28.098
754 42 2 27.937 9.057 28.878
755 42 2 27.937 9.057 29.659
756 42 2 27.937 9.057 30.439
757 43 2 2.540 15.094 17.171
758 43 2 2.540 15.094 17.951
759 43 2 2.540 15.094 18.732
760 43 2 2.540 15.094 19.512
761 43 2 2.540 15.094 20.293
762 43 2 2.540 15.094 21.073
763 43 2 2.540 15.094 21.854
764 43 2 2.540 15.094 22.634
765 43 2 2.540 15.094 23.415
766 43 2 2.540 15.094 24.195
767 43 2 2.540 15.094 24.976
768 43 2 2.540 15.094 25.756
769 43 2 2.540 15.094 26.537
770 43 2 2.540 15.094 27.317
771 43 2 2.540 15.094 28.098
772 43 2 2.540 15.094 28.878
773 43 2 2.540 15.094 29.659
774 43 2 2.540 15.094 30.439
775 44 2 7.619 15.094 17.171
776 44 2 7.619 15.094 17.951
777 44 2 7.619 15.094 18.732
778 44 2 7.619 15.094 19.512
779 44 2 7.619 15.094 20.293
780 44 2 7.619 15.094 21.073
781 44 2 7.619 15.094 21.854
782 44 2 7.619 15.094 22.634
783 44 2 7.619 15.094 23.415
784 44 2 7.619 15.094 24.195
785 44 2 7.619 15.094 24.976
786 44 2 7.619 15.094 25.756
787 44 2 7.619 15.094 26.537
788 44 2 7.619 15.094 27.317
789 44 2 7.619 15.094 28.098
790 44 2 7.619 15.094 28.878
791 44 2 7.619 15.094 29.659
792 44 2 7.619 15.094 30.439
793 45 2 12.698 15.094 17.171
794 45 2 12.698 15.094 17.951
795 45 2 12.698 15.094 18.732
796 45 2 12.698 15.094 19.512
797 45 2 12.698 15.094 20.293
798 45 2 12.698 15.094 21.073
799 45 2 12.698 15.094 21.854
800 45 2 12.698 15.094 22.634
801 45 2 12.698 15.094 23.415
802 45 2 12.698 15.094 24.195
803 45 2 12.698 15.094 24.976
804 45 2 12.698 15.094 25.756
805 45 2 12.698 15.094 26.537
806 45 2 12.698 15.094 27.317
807 45 2 12.698 15.094 28.098
808 45 2 12.698 15.094 28.878
809 45 2 12.698 15.094 29.659
810 45 2 12.698 15.094 30.439
811 46 2 17.778 15.094 17.171
812 46 2 17.778 15.094 17.951
813 46 2 17.778 15.094 18.732
814 46 2 17.778 15.094 19.512
815 46 2 17.778 15.094 20.293
816 46 2 17.778 15.094 21.073
817 46 2 17.778 15.094 21.854
818 46 2 17.778 15.094 22.634
819 46 2 17.778 15.094 23.415
820 46 2 17.778 15.094 24.195
821 46 2 17.778 15.094 24.976
822 46 2 17.778 15.094 25.756
823 46 2 17.778 15.094 26.537
824 46 2 17.778 15.094 27.317
825 46 2 17.778 15.094 28.098
826 46 2 17.778 15.094 28.878
827 46 2 17.778 15.094 29.659
828 46 2 17.778 15.094 30.439
829 47 2 22.857 15.094 17.171
830 47 2 22.857 15.094 17.951
831 47 2 22.857 15.094 18.732
832 47 2 22.857 15.094 19.512
833 47 2 22.857 15.094 20.293
834 47 2 22.857 15.094 21.073
835 47 2 22.857 15.094 21.854
836 47 2 22.857 15.094 22.634
837 47 2 22.857 15.094 23.415
838 47 2 22.857 15.094 24.195
839 47 2 22.857 15.094 24.976
840 47 2 22.857 15.094 25.756
841 47 2 22.857 15.094 26.537
842 47 2 22.857 15.094 27.317
843 47 2 22.857 15.094 28.098
844 47 2 22.857 15.094 28.878
845 47 2 22.857 15.094 29.659
846 47 2 22.857 15.094 30.439
847 48 2 27.937 15.094 17.171
848 48 2 27.937 15.094 17.951
849 48 2 27.937 15.094 18.732
850 48 2 27.937 15.094 19.512
851 48 2 27.937 15.094 20.293
852 48 2 27.937 15.094 21.073
853 48 2 27.937 15.094 21.854
854 48 2 27.937 15.094 22.634
855 48 2 27.937 15.094 23.415
856 48 2 27.937 15.094 24.195
857 48 2 27.937 15.094 24.976
858 48 2 27.937 15.094 25.756
859 48 2 27.937 15.094 26.537
860 48 2 27.937 15.094 27.317
861 48 2 27.937 15.094 28.098
862 48 2 27.937 15.094 28.878
863 48 2 27.937 15.094 29.659
864 48 2 27.937 15.094 30.439
865 49 2 2.540 21.132 17.171
866 49 2 2.540 21.132 17.951
867 49 2 2.540 21.132 18.732
868 49 2 2.540 21.132 19.512
869 49 2 2.540 21.132 20.293
870 49 2 2.540 21.132 21.073
871 49 2 2.540 21.132 21.854
872 49 2 2.540 21.132 22.634
873 49 2 2.540 21.132 23.415
874 49 2 2.540 21.132 24.195
875 49 2 2.540 21.132 24.976
876 49 2 2.540 21.132 25.756
877 49 2 2.540 21.132 26.537
878 49 2 2.540 21.132 27.317
879 49 2 2.540 21.132 28.098
880 49 2 2.540 21.132 28.878
881 49 2 2.540 21.132 29.659
882 49 2 2.540 21.132 30.439
883 50 2 7.619 21.132 17.171
884 50 2 7.619 21.132 17.951
885 50 2 7.619 21.132 18.732
886 50 2 7.619 21.132 19.512
887 50 2 7.619 21.132 20.293
888 50 2 7.619 21.132 21.073
889 50 2 7.619 21.132 21.854
890 50 2 7.619 21.132 22.634
891 50 2 7.619 21.132 23.415
892 50 2 7.619 21.132 24.195
893 50 2 7.619 21.132 24.976
894 50 2 7.619 21.132 25.756
895 50 2 7.619 21.132 26.537
896 50 2 7.619 21.132 27.317
897 50 2 7.619 21.132 28.098
898 50 2 7.619 21.132 28.878
899 50 2 7.619 21.132 29.659
900 50 2 7.619 21.132 30.439
901 51 2 12.698 21.132 17.171
902 51 2 12.698 21.132 17.951
903 51 2 12.698 21.132 18.732
904 51 2 12.698 21.132 19.512
905 51 2 12.698 21.132 20.293
906 51 2 12.698 21.132 21.073
907 51 2 12.698 21.132 21.854
908 51 2 12.698 21.132 22.634
909 51 2 12.698 21.132 23.415
910 51 2 12.698 21.132 24.195
911 51 2 12.698 21.132 24.976
912 51 2 12.698 21.132 25.756
913 51 2 12.698 21.132 26.537
914 51 2 12.698 21.132 27.317
915 51 2 12.698 21.132 28.098
916 51 2 12.698 21.132 28.878
917 51 2 12.698 21.132 29.659
918 51 2 12.698 21.132 30.439
919 52 2 17.778 21.132 17.171
920 52 2 17.778 21.132 17.951
921 52 2 17.778 21.132 18.732
922 52 2 17.778 21.132 19.512
923 52 2 17.778 21.132 20.293
924 52 2 17.778 21.132 21.073
925 52 2 17.778 21.132 21.854
926 52 2 17.778 21.132 22.634
927 52 2 17.778 21.132 23.415
928 52 2 17.778 21.132 24.195
929 52 2 17.778 21.132 24.976
930 52 2 17.778 21.132 25.756
931 52 2 17.778 21.132 26.537
932 52 2 17.778 21.132 27.317
933 52 2 17.778 21.132 28.098
934 52 2 17.778 21.132 28.878
935 52 2 17.778 21.132 29.659
936 52 2 17.778 21.132 30.439
937 53 2 22.857 21.132 17.171
938 53 2 22.857 21.132 17.951
939 53 2 22.857 21.132 18.732
940 53 2 22.857 21.132 19.512
941 53 2 22.857 21.132 20.293
942 53 2 22.857 21.132 21.073
943 53 2 22.857 21.132 21.854
944 53 2 22.857 21.132 22.634
945 53 2 22.857 21.132 23.415
946 53 2 22.857 21.132 24.195
947 53 2 22.857 21.132 24.976
948 53 2 22.857 21.132 25.756
949 53 2 22.857 21.132 26.537
950 53 2 22.857 21.132 27.317
951 53 2 22.857 21.132 28.098
952 53 2 22.857 21.132 28.878
953 53 2 22.857 21.132 29.659
954 53 2 22.857 21.132 30.439
955 54 2 27.937 21.132 17.171
956 54 2 27.937 21.132 17.951
957 54 2 27.937 21.132 18.732
958 54 2 27.937 21.132 19.512
959 54 2 27.937 21.132 20.293
960 54 2 27.937 21.132 21.073
961 54 2 27.937 21.132 21.854
962 54 2 27.937 21.132 22.634
963 54 2 27.937 21.132 23.415
964 54 2 27.937 21.132 24.195
965 54 2 27.937 21.132 24.976
966 54 2 27.937 21.132 25.756
967 54 2 27.937 21.132 26.537
968 54 2 27.937 21.132 27.317
969 54 2 27.937 21.132 28.098
970 54 2 27.937 21.132 28.878
971 54 2 27.937 21.132 29.659
972 54 2 27.937 21.132 30.439
973 55 2 2.540 27.170 17.171
974 55 2 2.540 27.170 17.951
975 55 2 2.540 27.170 18.732
976 55 2 2.540 27.170 19.512
977 55 2 2.540 27.170 20.293
978 55 2 2.540 27.170 21.073
979 55 2 2.540 27.170 21.854
980 55 2 2.540 27.170 22.634
981 55 2 2.540 27.170 23.415
982 55 2 2.540 27.170 24.195
983 55 2 2.540 27.170 24.976
984 55 2 2.540 27.170 25.756
985 55 2 2.540 27.170 26.537
986 55 2 2.540 27.170 27.317
987 55 2 2.540 27.170 28.098
988 55 2 2.540 27.170 28.878
989 55 2 2.540 27.170 29.659
990 55 2 2.540 27.170 30.439
991 56 2 7.619 27.170 17.171
992 56 2 7.619 27.170 17.951
993 56 2 7.619 27.170 18.732
994 56 2 7.619 27.170 19.512
995 56 2 7.619 27.170 20.293
996 56 2 7.619 27.170 21.073
997 56 2 7.619 27.170 21.854
998 56 2 7.619 27.170 22.634
999 56 2 7.619 27.170 23.415
1000 56 2 7.619 27.170 24.195
1001 56 2 7.619 27.170 24.976
1002 56 2 7.619 27.170 25.756
1003 56 2 7.619 27.170 26.537
1004 56 2 7.619 27.170 27.317
1005 56 2 7.619 27.170 28.098
1006 56 2 7.619 27.170 28.878
1007 56 2 7.619 27.170 29.659
1008 56 2 7.619 27.170 30.439
1009 57 2 12.698 27.170 17.171
1010 57 2 12.698 27.170 17.951
1011 57 2 12.698 27.170 18.732
1012 57 2 12.698 27.170 19.512
1013 57 2 12.698 27.170 20.293
1014 57 2 12.698 27.170 21.073
1015 57 2 12.698 27.170 21.854
1016 57 2 12.698 27.170 22.634
1017 57 2 12.698 27.170 23.415
1018 57 2 12.698 27.170 24.195
1019 57 2 12.698 27.170 24.976
1020 57 2 12.698 27.170 25.756
1021 57 2 12.698 27.170 26.537
1022 57 2 12.698 27.170 27.317
1023 57 2 12.698 27.170 28.098
1024 57 2 12.698 27.170 28.878
1025 57 2 12.698 27.170 29.659
1026 57 2 12.698 27.170 30.439
1027 58 2 17.778 27.170 17.171
1028 58 2 17.778 27.170 17.951
1029 58 2 17.778 27.170 18.732
1030 58 2 17.778 27.170 19.512
1031 58 2 17.778 27.170 20.293
1032 58 2 17.778 27.170 21.073
1033 58 2 17.778 27.170 21.854
1034 58 2 17.778 27.170 22.634
1035 58 2 17.778 27.170 23.415
1036 58 2 17.778 27.170 24.195
1037 58 2 17.778 27.170 24.976
1038 58 2 17.778 27.170 25.756
1039 58 2 17.778 27.170 26.537
1040 58 2 17.778 27.170 27.317