LAMMPS data file for polymer chains

840 atoms
780 bonds

2 atom types
1 bond types

0.0 32.0 xlo xhi
0.0 32.0 ylo yhi
0.0 32.0 zlo zhi

Masses

1 1.0  # Type A
2 1.0  # Type B

Atoms # molecular

1 1 1 0.000 0.000 0.000
2 1 1 0.000 0.000 0.970
3 1 1 0.000 0.000 1.939
4 1 1 0.000 0.000 2.909
5 1 1 0.000 0.000 3.879
6 1 1 0.000 0.000 4.848
7 1 1 0.000 0.000 5.818
8 1 1 0.000 0.000 6.788
9 1 1 0.000 0.000 7.758
10 1 1 0.000 0.000 8.727
11 1 1 0.000 0.000 9.697
12 1 1 0.000 0.000 10.667
13 1 1 0.000 0.000 11.636
14 1 1 0.000 0.000 12.606
15 2 1 5.079 0.000 0.000
16 2 1 5.079 0.000 0.970
17 2 1 5.079 0.000 1.939
18 2 1 5.079 0.000 2.909
19 2 1 5.079 0.000 3.879
20 2 1 5.079 0.000 4.848
21 2 1 5.079 0.000 5.818
22 2 1 5.079 0.000 6.788
23 2 1 5.079 0.000 7.758
24 2 1 5.079 0.000 8.727
25 2 1 5.079 0.000 9.697
26 2 1 5.079 0.000 10.667
27 2 1 5.079 0.000 11.636
28 2 1 5.079 0.000 12.606
29 3 1 10.159 0.000 0.000
30 3 1 10.159 0.000 0.970
31 3 1 10.159 0.000 1.939
32 3 1 10.159 0.000 2.909
33 3 1 10.159 0.000 3.879
34 3 1 10.159 0.000 4.848
35 3 1 10.159 0.000 5.818
36 3 1 10.159 0.000 6.788
37 3 1 10.159 0.000 7.758
38 3 1 10.159 0.000 8.727
39 3 1 10.159 0.000 9.697
40 3 1 10.159 0.000 10.667
41 3 1 10.159 0.000 11.636
42 3 1 10.159 0.000 12.606
43 4 1 15.238 0.000 0.000
44 4 1 15.238 0.000 0.970
45 4 1 15.238 0.000 1.939
46 4 1 15.238 0.000 2.909
47 4 1 15.238 0.000 3.879
48 4 1 15.238 0.000 4.848
49 4 1 15.238 0.000 5.818
50 4 1 15.238 0.000 6.788
51 4 1 15.238 0.000 7.758
52 4 1 15.238 0.000 8.727
53 4 1 15.238 0.000 9.697
54 4 1 15.238 0.000 10.667
55 4 1 15.238 0.000 11.636
56 4 1 15.238 0.000 12.606
57 5 1 20.317 0.000 0.000
58 5 1 20.317 0.000 0.970
59 5 1 20.317 0.000 1.939
60 5 1 20.317 0.000 2.909
61 5 1 20.317 0.000 3.879
62 5 1 20.317 0.000 4.848
63 5 1 20.317 0.000 5.818
64 5 1 20.317 0.000 6.788
65 5 1 20.317 0.000 7.758
66 5 1 20.317 0.000 8.727
67 5 1 20.317 0.000 9.697
68 5 1 20.317 0.000 10.667
69 5 1 20.317 0.000 11.636
70 5 1 20.317 0.000 12.606
71 6 1 25.397 0.000 0.000
72 6 1 25.397 0.000 0.970
73 6 1 25.397 0.000 1.939
74 6 1 25.397 0.000 2.909
75 6 1 25.397 0.000 3.879
76 6 1 25.397 0.000 4.848
77 6 1 25.397 0.000 5.818
78 6 1 25.397 0.000 6.788
79 6 1 25.397 0.000 7.758
80 6 1 25.397 0.000 8.727
81 6 1 25.397 0.000 9.697
82 6 1 25.397 0.000 10.667
83 6 1 25.397 0.000 11.636
84 6 1 25.397 0.000 12.606
85 7 1 0.000 6.038 0.000
86 7 1 0.000 6.038 0.970
87 7 1 0.000 6.038 1.939
88 7 1 0.000 6.038 2.909
89 7 1 0.000 6.038 3.879
90 7 1 0.000 6.038 4.848
91 7 1 0.000 6.038 5.818
92 7 1 0.000 6.038 6.788
93 7 1 0.000 6.038 7.758
94 7 1 0.000 6.038 8.727
95 7 1 0.000 6.038 9.697
96 7 1 0.000 6.038 10.667
97 7 1 0.000 6.038 11.636
98 7 1 0.000 6.038 12.606
99 8 1 5.079 6.038 0.000
100 8 1 5.079 6.038 0.970
101 8 1 5.079 6.038 1.939
102 8 1 5.079 6.038 2.909
103 8 1 5.079 6.038 3.879
104 8 1 5.079 6.038 4.848
105 8 1 5.079 6.038 5.818
106 8 1 5.079 6.038 6.788
107 8 1 5.079 6.038 7.758
108 8 1 5.079 6.038 8.727
109 8 1 5.079 6.038 9.697
110 8 1 5.079 6.038 10.667
111 8 1 5.079 6.038 11.636
112 8 1 5.079 6.038 12.606
113 9 1 10.159 6.038 0.000
114 9 1 10.159 6.038 0.970
115 9 1 10.159 6.038 1.939
116 9 1 10.159 6.038 2.909
117 9 1 10.159 6.038 3.879
118 9 1 10.159 6.038 4.848
119 9 1 10.159 6.038 5.818
120 9 1 10.159 6.038 6.788
121 9 1 10.159 6.038 7.758
122 9 1 10.159 6.038 8.727
123 9 1 10.159 6.038 9.697
124 9 1 10.159 6.038 10.667
125 9 1 10.159 6.038 11.636
126 9 1 10.159 6.038 12.606
127 10 1 15.238 6.038 0.000
128 10 1 15.238 6.038 0.970
129 10 1 15.238 6.038 1.939
130 10 1 15.238 6.038 2.909
131 10 1 15.238 6.038 3.879
132 10 1 15.238 6.038 4.848
133 10 1 15.238 6.038 5.818
134 10 1 15.238 6.038 6.788
135 10 1 15.238 6.038 7.758
136 10 1 15.238 6.038 8.727
137 10 1 15.238 6.038 9.697
138 10 1 15.238 6.038 10.667
139 10 1 15.238 6.038 11.636
140 10 1 15.238 6.038 12.606
141 11 1 20.317 6.038 0.000
142 11 1 20.317 6.038 0.970
143 11 1 20.317 6.038 1.939
144 11 1 20.317 6.038 2.909
145 11 1 20.317 6.038 3.879
146 11 1 20.317 6.038 4.848
147 11 1 20.317 6.038 5.818
148 11 1 20.317 6.038 6.788
149 11 1 20.317 6.038 7.758
150 11 1 20.317 6.038 8.727
151 11 1 20.317 6.038 9.697
152 11 1 20.317 6.038 10.667
153 11 1 20.317 6.038 11.636
154 11 1 20.317 6.038 12.606
155 12 1 25.397 6.038 0.000
156 12 1 25.397 6.038 0.970
157 12 1 25.397 6.038 1.939
158 12 1 25.397 6.038 2.909
159 12 1 25.397 6.038 3.879
160 12 1 25.397 6.038 4.848
161 12 1 25.397 6.038 5.818
162 12 1 25.397 6.038 6.788
163 12 1 25.397 6.038 7.758
164 12 1 25.397 6.038 8.727
165 12 1 25.397 6.038 9.697
166 12 1 25.397 6.038 10.667
167 12 1 25.397 6.038 11.636
168 12 1 25.397 6.038 12.606
169 13 1 0.000 12.075 0.000
170 13 1 0.000 12.075 0.970
171 13 1 0.000 12.075 1.939
172 13 1 0.000 12.075 2.909
173 13 1 0.000 12.075 3.879
174 13 1 0.000 12.075 4.848
175 13 1 0.000 12.075 5.818
176 13 1 0.000 12.075 6.788
177 13 1 0.000 12.075 7.758
178 13 1 0.000 12.075 8.727
179 13 1 0.000 12.075 9.697
180 13 1 0.000 12.075 10.667
181 13 1 0.000 12.075 11.636
182 13 1 0.000 12.075 12.606
183 14 1 5.079 12.075 0.000
184 14 1 5.079 12.075 0.970
185 14 1 5.079 12.075 1.939
186 14 1 5.079 12.075 2.909
187 14 1 5.079 12.075 3.879
188 14 1 5.079 12.075 4.848
189 14 1 5.079 12.075 5.818
190 14 1 5.079 12.075 6.788
191 14 1 5.079 12.075 7.758
192 14 1 5.079 12.075 8.727
193 14 1 5.079 12.075 9.697
194 14 1 5.079 12.075 10.667
195 14 1 5.079 12.075 11.636
196 14 1 5.079 12.075 12.606
197 15 1 10.159 12.075 0.000
198 15 1 10.159 12.075 0.970
199 15 1 10.159 12.075 1.939
200 15 1 10.159 12.075 2.909
201 15 1 10.159 12.075 3.879
202 15 1 10.159 12.075 4.848
203 15 1 10.159 12.075 5.818
204 15 1 10.159 12.075 6.788
205 15 1 10.159 12.075 7.758
206 15 1 10.159 12.075 8.727
207 15 1 10.159 12.075 9.697
208 15 1 10.159 12.075 10.667
209 15 1 10.159 12.075 11.636
210 15 1 10.159 12.075 12.606
211 16 1 15.238 12.075 0.000
212 16 1 15.238 12.075 0.970
213 16 1 15.238 12.075 1.939
214 16 1 15.238 12.075 2.909
215 16 1 15.238 12.075 3.879
216 16 1 15.238 12.075 4.848
217 16 1 15.238 12.075 5.818
218 16 1 15.238 12.075 6.788
219 16 1 15.238 12.075 7.758
220 16 1 15.238 12.075 8.727
221 16 1 15.238 12.075 9.697
222 16 1 15.238 12.075 10.667
223 16 1 15.238 12.075 11.636
224 16 1 15.238 12.075 12.606
225 17 1 20.317 12.075 0.000
226 17 1 20.317 12.075 0.970
227 17 1 20.317 12.075 1.939
228 17 1 20.317 12.075 2.909
229 17 1 20.317 12.075 3.879
230 17 1 20.317 12.075 4.848
231 17 1 20.317 12.075 5.818
232 17 1 20.317 12.075 6.788
233 17 1 20.317 12.075 7.758
234 17 1 20.317 12.075 8.727
235 17 1 20.317 12.075 9.697
236 17 1 20.317 12.075 10.667
237 17 1 20.317 12.075 11.636
238 17 1 20.317 12.075 12.606
239 18 1 25.397 12.075 0.000
240 18 1 25.397 12.075 0.970
241 18 1 25.397 12.075 1.939
242 18 1 25.397 12.075 2.909
243 18 1 25.397 12.075 3.879
244 18 1 25.397 12.075 4.848
245 18 1 25.397 12.075 5.818
246 18 1 25.397 12.075 6.788
247 18 1 25.397 12.075 7.758
248 18 1 25.397 12.075 8.727
249 18 1 25.397 12.075 9.697
250 18 1 25.397 12.075 10.667
251 18 1 25.397 12.075 11.636
252 18 1 25.397 12.075 12.606
253 19 1 0.000 18.113 0.000
254 19 1 0.000 18.113 0.970
255 19 1 0.000 18.113 1.939
256 19 1 0.000 18.113 2.909
257 19 1 0.000 18.113 3.879
258 19 1 0.000 18.113 4.848
259 19 1 0.000 18.113 5.818
260 19 1 0.000 18.113 6.788
261 19 1 0.000 18.113 7.758
262 19 1 0.000 18.113 8.727
263 19 1 0.000 18.113 9.697
264 19 1 0.000 18.113 10.667
265 19 1 0.000 18.113 11.636
266 19 1 0.000 18.113 12.606
267 20 1 5.079 18.113 0.000
268 20 1 5.079 18.113 0.970
269 20 1 5.079 18.113 1.939
270 20 1 5.079 18.113 2.909
271 20 1 5.079 18.113 3.879
272 20 1 5.079 18.113 4.848
273 20 1 5.079 18.113 5.818
274 20 1 5.079 18.113 6.788
275 20 1 5.079 18.113 7.758
276 20 1 5.079 18.113 8.727
277 20 1 5.079 18.113 9.697
278 20 1 5.079 18.113 10.667
279 20 1 5.079 18.113 11.636
280 20 1 5.079 18.113 12.606
281 21 1 10.159 18.113 0.000
282 21 1 10.159 18.113 0.970
283 21 1 10.159 18.113 1.939
284 21 1 10.159 18.113 2.909
285 21 1 10.159 18.113 3.879
286 21 1 10.159 18.113 4.848
287 21 1 10.159 18.113 5.818
288 21 1 10.159 18.113 6.788
289 21 1 10.159 18.113 7.758
290 21 1 10.159 18.113 8.727
291 21 1 10.159 18.113 9.697
292 21 1 10.159 18.113 10.667
293 21 1 10.159 18.113 11.636
294 21 1 10.159 18.113 12.606
295 22 1 15.238 18.113 0.000
296 22 1 15.238 18.113 0.970
297 22 1 15.238 18.113 1.939
298 22 1 15.238 18.113 2.909
299 22 1 15.238 18.113 3.879
300 22 1 15.238 18.113 4.848
301 22 1 15.238 18.113 5.818
302 22 1 15.238 18.113 6.788
303 22 1 15.238 18.113 7.758
304 22 1 15.238 18.113 8.727
305 22 1 15.238 18.113 9.697
306 22 1 15.238 18.113 10.667
307 22 1 15.238 18.113 11.636
308 22 1 15.238 18.113 12.606
309 23 1 20.317 18.113 0.000
310 23 1 20.317 18.113 0.970
311 23 1 20.317 18.113 1.939
312 23 1 20.317 18.113 2.909
313 23 1 20.317 18.113 3.879
314 23 1 20.317 18.113 4.848
315 23 1 20.317 18.113 5.818
316 23 1 20.317 18.113 6.788
317 23 1 20.317 18.113 7.758
318 23 1 20.317 18.113 8.727
319 23 1 20.317 18.113 9.697
320 23 1 20.317 18.113 10.667
321 23 1 20.317 18.113 11.636
322 23 1 20.317 18.113 12.606
323 24 1 25.397 18.113 0.000
324 24 1 25.397 18.113 0.970
325 24 1 25.397 18.113 1.939
326 24 1 25.397 18.113 2.909
327 24 1 25.397 18.113 3.879
328 24 1 25.397 18.113 4.848
329 24 1 25.397 18.113 5.818
330 24 1 25.397 18.113 6.788
331 24 1 25.397 18.113 7.758
332 24 1 25.397 18.113 8.727
333 24 1 25.397 18.113 9.697
334 24 1 25.397 18.113 10.667
335 24 1 25.397 18.113 11.636
336 24 1 25.397 18.113 12.606
337 25 1 0.000 24.151 0.000
338 25 1 0.000 24.151 0.970
339 25 1 0.000 24.151 1.939
340 25 1 0.000 24.151 2.909
341 25 1 0.000 24.151 3.879
342 25 1 0.000 24.151 4.848
343 25 1 0.000 24.151 5.818
344 25 1 0.000 24.151 6.788
345 25 1 0.000 24.151 7.758
346 25 1 0.000 24.151 8.727
347 25 1 0.000 24.151 9.697
348 25 1 0.000 24.151 10.667
349 25 1 0.000 24.151 11.636
350 25 1 0.000 24.151 12.606
351 26 1 5.079 24.151 0.000
352 26 1 5.079 24.151 0.970
353 26 1 5.079 24.151 1.939
354 26 1 5.079 24.151 2.909
355 26 1 5.079 24.151 3.879
356 26 1 5.079 24.151 4.848
357 26 1 5.079 24.151 5.818
358 26 1 5.079 24.151 6.788
359 26 1 5.079 24.151 7.758
360 26 1 5.079 24.151 8.727
361 26 1 5.079 24.151 9.697
362 26 1 5.079 24.151 10.667
363 26 1 5.079 24.151 11.636
364 26 1 5.079 24.151 12.606
365 27 1 10.159 24.151 0.000
366 27 1 10.159 24.151 0.970
367 27 1 10.159 24.151 1.939
368 27 1 10.159 24.151 2.909
369 27 1 10.159 24.151 3.879
370 27 1 10.159 24.151 4.848
371 27 1 10.159 24.151 5.818
372 27 1 10.159 24.151 6.788
373 27 1 10.159 24.151 7.758
374 27 1 10.159 24.151 8.727
375 27 1 10.159 24.151 9.697
376 27 1 10.159 24.151 10.667
377 27 1 10.159 24.151 11.636
378 27 1 10.159 24.151 12.606
379 28 1 15.238 24.151 0.000
380 28 1 15.238 24.151 0.970
381 28 1 15.238 24.151 1.939
382 28 1 15.238 24.151 2.909
383 28 1 15.238 24.151 3.879
384 28 1 15.238 24.151 4.848
385 28 1 15.238 24.151 5.818
386 28 1 15.238 24.151 6.788
387 28 1 15.238 24.151 7.758
388 28 1 15.238 24.151 8.727
389 28 1 15.238 24.151 9.697
390 28 1 15.238 24.151 10.667
391 28 1 15.238 24.151 11.636
392 28 1 15.238 24.151 12.606
393 29 1 20.317 24.151 0.000
394 29 1 20.317 24.151 0.970
395 29 1 20.317 24.151 1.939
396 29 1 20.317 24.151 2.909
397 29 1 20.317 24.151 3.879
398 29 1 20.317 24.151 4.848
399 29 1 20.317 24.151 5.818
400 29 1 20.317 24.151 6.788
401 29 1 20.317 24.151 7.758
402 29 1 20.317 24.151 8.727
403 29 1 20.317 24.151 9.697
404 29 1 20.317 24.151 10.667
405 29 1 20.317 24.151 11.636
406 29 1 20.317 24.151 12.606
407 30 1 25.397 24.151 0.000
408 30 1 25.397 24.151 0.970
409 30 1 25.397 24.151 1.939
410 30 1 25.397 24.151 2.909
411 30 1 25.397 24.151 3.879
412 30 1 25.397 24.151 4.848
413 30 1 25.397 24.151 5.818
414 30 1 25.397 24.151 6.788
415 30 1 25.397 24.151 7.758
416 30 1 25.397 24.151 8.727
417 30 1 25.397 24.151 9.697
418 30 1 25.397 24.151 10.667
419 30 1 25.397 24.151 11.636
420 30 1 25.397 24.151 12.606
421 31 2 2.540 3.019 17.455
422 31 2 2.540 3.019 18.424
423 31 2 2.540 3.019 19.394
424 31 2 2.540 3.019 20.364
425 31 2 2.540 3.019 21.333
426 31 2 2.540 3.019 22.303
427 31 2 2.540 3.019 23.273
428 31 2 2.540 3.019 24.242
429 31 2 2.540 3.019 25.212
430 31 2 2.540 3.019 26.182
431 31 2 2.540 3.019 27.152
432 31 2 2.540 3.019 28.121
433 31 2 2.540 3.019 29.091
434 31 2 2.540 3.019 30.061
435 32 2 7.619 3.019 17.455
436 32 2 7.619 3.019 18.424
437 32 2 7.619 3.019 19.394
438 32 2 7.619 3.019 20.364
439 32 2 7.619 3.019 21.333
440 32 2 7.619 3.019 22.303
441 32 2 7.619 3.019 23.273
442 32 2 7.619 3.019 24.242
443 32 2 7.619 3.019 25.212
444 32 2 7.619 3.019 26.182
445 32 2 7.619 3.019 27.152
446 32 2 7.619 3.019 28.121
447 32 2 7.619 3.019 29.091
448 32 2 7.619 3.019 30.061
449 33 2 12.698 3.019 17.455
450 33 2 12.698 3.019 18.424
451 33 2 12.698 3.019 19.394
452 33 2 12.698 3.019 20.364
453 33 2 12.698 3.019 21.333
454 33 2 12.698 3.019 22.303
455 33 2 12.698 3.019 23.273
456 33 2 12.698 3.019 24.242
457 33 2 12.698 3.019 25.212
458 33 2 12.698 3.019 26.182
459 33 2 12.698 3.019 27.152
460 33 2 12.698 3.019 28.121
461 33 2 12.698 3.019 29.091
462 33 2 12.698 3.019 30.061
463 34 2 17.778 3.019 17.455
464 34 2 17.778 3.019 18.424
465 34 2 17.778 3.019 19.394
466 34 2 17.778 3.019 20.364
467 34 2 17.778 3.019 21.333
468 34 2 17.778 3.019 22.303
469 34 2 17.778 3.019 23.273
470 34 2 17.778 3.019 24.242
471 34 2 17.778 3.019 25.212
472 34 2 17.778 3.019 26.182
473 34 2 17.778 3.019 27.152
474 34 2 17.778 3.019 28.121
475 34 2 17.778 3.019 29.091
476 34 2 17.778 3.019 30.061
477 35 2 22.857 3.019 17.455
478 35 2 22.857 3.019 18.424
479 35 2 22.857 3.019 19.394
480 35 2 22.857 3.019 20.364
481 35 2 22.857 3.019 21.333
482 35 2 22.857 3.019 22.303
483 35 2 22.857 3.019 23.273
484 35 2 22.857 3.019 24.242
485 35 2 22.857 3.019 25.212
486 35 2 22.857 3.019 26.182
487 35 2 22.857 3.019 27.152
488 35 2 22.857 3.019 28.121
489 35 2 22.857 3.019 29.091
490 35 2 22.857 3.019 30.061
491 36 2 27.937 3.019 17.455
492 36 2 27.937 3.019 18.424
493 36 2 27.937 3.019 19.394
494 36 2 27.937 3.019 20.364
495 36 2 27.937 3.019 21.333
496 36 2 27.937 3.019 22.303
497 36 2 27.937 3.019 23.273
498 36 2 27.937 3.019 24.242
499 36 2 27.937 3.019 25.212
500 36 2 27.937 3.019 26.182
501 36 2 27.937 3.019 27.152
502 36 2 27.937 3.019 28.121
503 36 2 27.937 3.019 29.091
504 36 2 27.937 3.019 30.061
505 37 2 2.540 9.057 17.455
506 37 2 2.540 9.057 18.424
507 37 2 2.540 9.057 19.394
508 37 2 2.540 9.057 20.364
509 37 2 2.540 9.057 21.333
510 37 2 2.540 9.057 22.303
511 37 2 2.540 9.057 23.273
512 37 2 2.540 9.057 24.242
513 37 2 2.540 9.057 25.212
514 37 2 2.540 9.057 26.182
515 37 2 2.540 9.057 27.152
516 37 2 2.540 9.057 28.121
517 37 2 2.540 9.057 29.091
518 37 2 2.540 9.057 30.061
519 38 2 7.619 9.057 17.455
520 38 2 7.619 9.057 18.424
521 38 2 7.619 9.057 19.394
522 38 2 7.619 9.057 20.364
523 38 2 7.619 9.057 21.333
524 38 2 7.619 9.057 22.303
525 38 2 7.619 9.057 23.273
526 38 2 7.619 9.057 24.242
527 38 2 7.619 9.057 25.212
528 38 2 7.619 9.057 26.182
529 38 2 7.619 9.057 27.152
530 38 2 7.619 9.057 28.121
531 38 2 7.619 9.057 29.091
532 38 2 7.619 9.057 30.061
533 39 2 12.698 9.057 17.455
534 39 2 12.698 9.057 18.424
535 39 2 12.698 9.057 19.394
536 39 2 12.698 9.057 20.364
537 39 2 12.698 9.057 21.333
538 39 2 12.698 9.057 22.303
539 39 2 12.698 9.057 23.273
540 39 2 12.698 9.057 24.242
541 39 2 12.698 9.057 25.212
542 39 2 12.698 9.057 26.182
543 39 2 12.698 9.057 27.152
544 39 2 12.698 9.057 28.121
545 39 2 12.698 9.057 29.091
546 39 2 12.698 9.057 30.061
547 40 2 17.778 9.057 17.455
548 40 2 17.778 9.057 18.424
549 40 2 17.778 9.057 19.394
550 40 2 17.778 9.057 20.364
551 40 2 17.778 9.057 21.333
552 40 2 17.778 9.057 22.303
553 40 2 17.778 9.057 23.273
554 40 2 17.778 9.057 24.242
555 40 2 17.778 9.057 25.212
556 40 2 17.778 9.057 26.182
557 40 2 17.778 9.057 27.152
558 40 2 17.778 9.057 28.121
559 40 2 17.778 9.057 29.091
560 40 2 17.778 9.057 30.061
561 41 2 22.857 9.057 17.455
562 41 2 22.857 9.057 18.424
563 41 2 22.857 9.057 19.394
564 41 2 22.857 9.057 20.364
565 41 2 22.857 9.057 21.333
566 41 2 22.857 9.057 22.303
567 41 2 22.857 9.057 23.273
568 41 2 22.857 9.057 24.242
569 41 2 22.857 9.057 25.212
570 41 2 22.857 9.057 26.182
571 41 2 22.857 9.057 27.152
572 41 2 22.857 9.057 28.121
573 41 2 22.857 9.057 29.091
574 41 2 22.857 9.057 30.061
575 42 2 27.937 9.057 17.455
576 42 2 27.937 9.057 18.424
577 42 2 27.937 9.057 19.394
578 42 2 27.937 9.057 20.364
579 42 2 27.937 9.057 21.333
580 42 2 27.937 9.057 22.303
581 42 2 27.937 9.057 23.273
582 42 2 27.937 9.057 24.242
583 42 2 27.937 9.057 25.212
584 42 2 27.937 9.057 26.182
585 42 2 27.937 9.057 27.152
586 42 2 27.937 9.057 28.121
587 42 2 27.937 9.057 29.091
588 42 2 27.937 9.057 30.061
589 43 2 2.540 15.094 17.455
590 43 2 2.540 15.094 18.424
591 43 2 2.540 15.094 19.394
592 43 2 2.540 15.094 20.364
593 43 2 2.540 15.094 21.333
594 43 2 2.540 15.094 22.303
595 43 2 2.540 15.094 23.273
596 43 2 2.540 15.094 24.242
597 43 2 2.540 15.094 25.212
598 43 2 2.540 15.094 26.182
599 43 2 2.540 15.094 27.152
600 43 2 2.540 15.094 28.121
601 43 2 2.540 15.094 29.091
602 43 2 2.540 15.094 30.061
603 44 2 7.619 15.094 17.455
604 44 2 7.619 15.094 18.424
605 44 2 7.619 15.094 19.394
606 44 2 7.619 15.094 20.364
607 44 2 7.619 15.094 21.333
608 44 2 7.619 15.094 22.303
609 44 2 7.619 15.094 23.273
610 44 2 7.619 15.094 24.242
611 44 2 7.619 15.094 25.212
612 44 2 7.619 15.094 26.182
613 44 2 7.619 15.094 27.152
614 44 2 7.619 15.094 28.121
615 44 2 7.619 15.094 29.091
616 44 2 7.619 15.094 30.061
617 45 2 12.698 15.094 17.455
618 45 2 12.698 15.094 18.424
619 45 2 12.698 15.094 19.394
620 45 2 12.698 15.094 20.364
621 45 2 12.698 15.094 21.333
622 45 2 12.698 15.094 22.303
623 45 2 12.698 15.094 23.273
624 45 2 12.698 15.094 24.242
625 45 2 12.698 15.094 25.212
626 45 2 12.698 15.094 26.182
627 45 2 12.698 15.094 27.152
628 45 2 12.698 15.094 28.121
629 45 2 12.698 15.094 29.091
630 45 2 12.698 15.094 30.061
631 46 2 17.778 15.094 17.455
632 46 2 17.778 15.094 18.424
633 46 2 17.778 15.094 19.394
634 46 2 17.778 15.094 20.364
635 46 2 17.778 15.094 21.333
636 46 2 17.778 15.094 22.303
637 46 2 17.778 15.094 23.273
638 46 2 17.778 15.094 24.242
639 46 2 17.778 15.094 25.212
640 46 2 17.778 15.094 26.182
641 46 2 17.778 15.094 27.152
642 46 2 17.778 15.094 28.121
643 46 2 17.778 15.094 29.091
644 46 2 17.778 15.094 30.061
645 47 2 22.857 15.094 17.455
646 47 2 22.857 15.094 18.424
647 47 2 22.857 15.094 19.394
648 47 2 22.857 15.094 20.364
649 47 2 22.857 15.094 21.333
650 47 2 22.857 15.094 22.303
651 47 2 22.857 15.094 23.273
652 47 2 22.857 15.094 24.242
653 47 2 22.857 15.094 25.212
654 47 2 22.857 15.094 26.182
655 47 2 22.857 15.094 27.152
656 47 2 22.857 15.094 28.121
657 47 2 22.857 15.094 29.091
658 47 2 22.857 15.094 30.061
659 48 2 27.937 15.094 17.455
660 48 2 27.937 15.094 18.424
661 48 2 27.937 15.094 19.394
662 48 2 27.937 15.094 20.364
663 48 2 27.937 15.094 21.333
664 48 2 27.937 15.094 22.303
665 48 2 27.937 15.094 23.273
666 48 2 27.937 15.094 24.242
667 48 2 27.937 15.094 25.212
668 48 2 27.937 15.094 26.182
669 48 2 27.937 15.094 27.152
670 48 2 27.937 15.094 28.121
671 48 2 27.937 15.094 29.091
672 48 2 27.937 15.094 30.061
673 49 2 2.540 21.132 17.455
674 49 2 2.540 21.132 18.424
675 49 2 2.540 21.132 19.394
676 49 2 2.540 21.132 20.364
677 49 2 2.540 21.132 21.333
678 49 2 2.540 21.132 22.303
679 49 2 2.540 21.132 23.273
680 49 2 2.540 21.132 24.242
681 49 2 2.540 21.132 25.212
682 49 2 2.540 21.132 26.182
683 49 2 2.540 21.132 27.152
684 49 2 2.540 21.132 28.121
685 49 2 2.540 21.132 29.091
686 49 2 2.540 21.132 30.061
687 50 2 7.619 21.132 17.455
688 50 2 7.619 21.132 18.424
689 50 2 7.619 21.132 19.394
690 50 2 7.619 21.132 20.364
691 50 2 7.619 21.132 21.333
692 50 2 7.619 21.132 22.303
693 50 2 7.619 21.132 23.273
694 50 2 7.619 21.132 24.242
695 50 2 7.619 21.132 25.212
696 50 2 7.619 21.132 26.182
697 50 2 7.619 21.132 27.152
698 50 2 7.619 21.132 28.121
699 50 2 7.619 21.132 29.091
700 50 2 7.619 21.132 30.061
701 51 2 12.698 21.132 17.455
702 51 2 12.698 21.132 18.424
703 51 2 12.698 21.132 19.394
704 51 2 12.698 21.132 20.364
705 51 2 12.698 21.132 21.333
706 51 2 12.698 21.132 22.303
707 51 2 12.698 21.132 23.273
708 51 2 12.698 21.132 24.242
709 51 2 12.698 21.132 25.212
710 51 2 12.698 21.132 26.182
711 51 2 12.698 21.132 27.152
712 51 2 12.698 21.132 28.121
713 51 2 12.698 21.132 29.091
714 51 2 12.698 21.132 30.061
715 52 2 17.778 21.132 17.455
716 52 2 17.778 21.132 18.424
717 52 2 17.778 21.132 19.394
718 52 2 17.778 21.132 20.364
719 52 2 17.778 21.132 21.333
720 52 2 17.778 21.132 22.303
721 52 2 17.778 21.132 23.273
722 52 2 17.778 21.132 24.242
723 52 2 17.778 21.132 25.212
724 52 2 17.778 21.132 26.182
725 52 2 17.778 21.132 27.152
726 52 2 17.778 21.132 28.121
727 52 2 17.778 21.132 29.091
728 52 2 17.778 21.132 30.061
729 53 2 22.857 21.132 17.455
730 53 2 22.857 21.132 18.424
731 53 2 22.857 21.132 19.394
732 53 2 22.857 21.132 20.364
733 53 2 22.857 21.132 21.333
734 53 2 22.857 21.132 22.303
735 53 2 22.857 21.132 23.273
736 53 2 22.857 21.132 24.242
737 53 2 22.857 21.132 25.212
738 53 2 22.857 21.132 26.182
739 53 2 22.857 21.132 27.152
740 53 2 22.857 21.132 28.121
741 53 2 22.857 21.132 29.091
742 53 2 22.857 21.132 30.061
743 54 2 27.937 21.132 17.455
744 54 2 27.937 21.132 18.424
745 54 2 27.937 21.132 19.394
746 54 2 27.937 21.132 20.364
747 54 2 27.937 21.132 21.333
748 54 2 27.937 21.132 22.303
749 54 2 27.937 21.132 23.273
750 54 2 27.937 21.132 24.242
751 54 2 27.937 21.132 25.212
752 54 2 27.937 21.132 26.182
753 54 2 27.937 21.132 27.152
754 54 2 27.937 21.132 28.121
755 54 2 27.937 21.132 29.091
756 54 2 27.937 21.132 30.061
757 55 2 2.540 27.170 17.455
758 55 2 2.540 27.170 18.424
759 55 2 2.540 27.170 19.394
760 55 2 2.540 27.170 20.364
761 55 2 2.540 27.170 21.333
762 55 2 2.540 27.170 22.303
763 55 2 2.540 27.170 23.273
764 55 2 2.540 27.170 24.242
765 55 2 2.540 27.170 25.212
766 55 2 2.540 27.170 26.182
767 55 2 2.540 27.170 27.152
768 55 2 2.540 27.170 28.121
769 55 2 2.540 27.170 29.091
770 55 2 2.540 27.170 30.061
771 56 2 7.619 27.170 17.455
772 56 2 7.619 27.170 18.424
773 56 2 7.619 27.170 19.394
774 56 2 7.619 27.170 20.364
775 56 2 7.619 27.170 21.333
776 56 2 7.619 27.170 22.303
777 56 2 7.619 27.170 23.273
778 56 2 7.619 27.170 24.242
779 56 2 7.619 27.170 25.212
780 56 2 7.619 27.170 26.182
781 56 2 7.619 27.170 27.152
782 56 2 7.619 27.170 28.121
783 56 2 7.619 27.170 29.091
784 56 2 7.619 27.170 30.061
785 57 2 12.698 27.170 17.455
786 57 2 12.698 27.170 18.424
787 57 2 12.698 27.170 19.394
788 57 2 12.698 27.170 20.364
789 57 2 12.698 27.170 21.333
790 57 2 12.698 27.170 22.303
791 57 2 12.698 27.170 23.273
792 57 2 12.698 27.170 24.242
793 57 2 12.698 27.170 25.212
794 57 2 12.698 27.170 26.182
795 57 2 12.698 27.170 27.152
796 57 2 12.698 27.170 28.121
797 57 2 12.698 27.170 29.091
798 57 2 12.698 27.170 30.061
799 58 2 17.778 27.170 17.455
800 58 2 17.778 27.170 18.424
801 58 2 17.778 27.170 19.394
802 58 2 17.778 27.170 20.364
803 58 2 17.778 27.170 21.333
804 58 2 17.778 27.170 22.303
805 58 2 17.778 27.170 23.273
806 58 2 17.778 27.170 24.242
807 58 2 17.778 27.170 25.212
808 58 2 17.778 27.170 26.182
809 58 2 17.778 27.170 27.152
810 58 2 17.778 27.170 28.121
811 58 2 17.778 27.170 29.091
812 58 2 17.778 27.170 30.061
813 59 2 22.857 27.170 17.455
814 59 2 22.857 27.170 18.424
815 59 2 22.857 27.170 19.394
816 59 2 22.857 27.170 20.364
817 59 2 22.857 27.170 21.333
818 59 2 22.857 27.170 22.303
819 59 2 22.857 27.170 23.273
820 59 2 22.857 27.170 24.242
821 59 2 22.857 27.170 25.212
822 59 2 22.857 27.170 26.182
823 59 2 22.857 27.170 27.152
824 59 2 22.857 27.170 28.121
825 59 2 22.857 27.170 29.091
826 59 2 22.857 27.170 30.061
827 60 2 27.937 27.170 17.455
828 60 2 27.937 27.170 18.424
829 60 2 27.937 27.170 19.394
830 60 2 27.937 27.170 20.364
831 60 2 27.937 27.170 21.333
832 60 2 27.937 27.170 22.303
833 60 2 27.937 27.170 23.273
834 60 2 27.937 27.170 24.242
835 60 2 27.937 27.170 25.212
836 60 2 27.937 27.170 26.182
837 60 2 27.937 27.170 27.152
838 60 2 27.937 27.170 28.121
839 60 2 27.937 27.170 29.091
840 60 2 27.937 27.170 30.061

Bonds

1 1 1 2
2 1 2 3
3 1 3 4
4 1 4 5
5 1 5 6
6 1 6 7
7 1 7 8
8 1 8 9
9 1 9 10
10 1 10 11
11 1 11 12
12 1 12 13
13 1 13 14
14 1 15 16
15 1 16 17
16 1 17 18
17 1 18 19
18 1 19 20
19 1 20 21
20 1 21 22
21 1 22 23
22 1 23 24
23 1 24 25
24 1 25 26
25 1 26 27
26 1 27 28
27 1 29 30
28 1 30 31
29 1 31 32
30 1 32 33
31 1 33 34
32 1 34 35
33 1 35 36
34 1 36 37
35 1 37 38
36 1 38 39
37 1 39 40
38 1 40 41
39 1 41 42
40 1 43 44
41 1 44 45
42 1 45 46
43 1 46 47
44 1 47 48
45 1 48 49
46 1 49 50
47 1 50 51
48 1 51 52
49 1 52 53
50 1 53 54
51 1 54 55
52 1 55 56
53 1 57 58
54 1 58 59
55 1 59 60
56 1 60 61
57 1 61 62
58 1 62 63
59 1 63 64
60 1 64 65
61 1 65 66
62 1 66 67
63 1 67 68
64 1 68 69
65 1 69 70
66 1 71 72
67 1 72 73
68 1 73 74
69 1 74 75
70 1 75 76
71 1 76 77
72 1 77 78
73 1 78 79
74 1 79 80
75 1 80 81
76 1 81 82
77 1 82 83
78 1 83 84
79 1 85 86
80 1 86 87
81 1 87 88
82 1 88 89
83 1 89 90
84 1 90 91
85 1 91 92
86 1 92 93
87 1 93 94
88 1 94 95
89 1 95 96
90 1 96 97
91 1 97 98
92 1 99 100
93 1 100 101
94 1 101 102
95 1 102 103
96 1 103 104
97 1 104 105
98 1 105 106
99 1 106 107
100 1 107 108
101 1 108 109
102 1 109 110
103 1 110 111
104 1 111 112
105 1 113 114
106 1 114 115
107 1 115 116
108 1 116 117
109 1 117 118
110 1 118 119
111 1 119 120
112 1 120 121
113 1 121 122
114 1 122 123
115 1 123 124
116 1 124 125
117 1 125 126
118 1 127 128
119 1 128 129
120 1 129 130
121 1 130 131
122 1 131 132
123 1 132 133
124 1 133 134
125 1 134 135
126 1 135 136
127 1 136 137
128 1 137 138
129 1 138 139
130 1 139 140
131 1 141 142
132 1 142 143
133 1 143 144
134 1 144 145
135 1 145 146
136 1 146 147
137 1 147 148
138 1 148 149
139 1 149 150
140 1 150 151
141 1 151 152
142 1 152 153
143 1 153 154
144 1 155 156
145 1 156 157
146 1 157 158
147 1 158 159
148 1 159 160
149 1 160 161
150 1 161 162
151 1 162 163
152 1 163 164
153 1 164 165
154 1 165 166
155 1 166 167
156 1 167 168
157 1 169 170
158 1 170 171
159 1 171 172
160 1 172 173
161 1 173 174
162 1 174 175
163 1 175 176
164 1 176 177
165 1 177 178
166 1 178 179
167 1 179 180
168 1 180 181
169 1 181 182
170 1 183 184
171 1 184 185
172 1 185 186
173 1 186 187
174 1 187 188
175 1 188 189
176 1 189 190
177 1 190 191
178 1 191 192
179 1 192 193
180 1 193 194
181 1 194 195
182 1 195 196
183 1 197 198
184 1 198 199
185 1 199 200
186 1 200 201
187 1 201 202
188 1 202 203
189 1 203 204
190 1 204 205
191 1 205 206
192 1 206 207
193 1 207 208
194 1 208 209
195 1 209 210
196 1 211 212
197 1 212 213
198 1 213 214
199 1 214 215
200 1 215 216
201 1 216 217
202 1 217 218
203 1 218 219
204 1 219 220
205 1 220 221
206 1 221 222
207 1 222 223
208 1 223 224
209 1 225 226
210 1 226 227
211 1 227 228
212 1 228 229
213 1 229 230
214 1 230 231
215 1 231 232
216 1 232 233
217 1 233 234
218 1 234 235
219 1 235 236
220 1 236 237
221 1 237 238
222 1 239 240
223 1 240 241
224 1 241 242
225 1 242 243
226 1 243 244
227 1 244 245
228 1 245 246
229 1 246 247
230 1 247 248
231 1 248 249
232 1 249 250
233 1 250 251
234 1 251 252
235 1 253 254
236 1 254 255
237 1 255 256
238 1 256 257
239 1 257 258
240 1 258 259
241 1 259 260
242 1 260 261
243 1 261 262
244 1 262 263
245 1 263 264
246 1 264 265
247 1 265 266
248 1 267 268
249 1 268 269
250 1 269 270
251 1 270 271
252 1 271 272
253 1 272 273
254 1 273 274
255 1 274 275
256 1 275 276
257 1 276 277
258 1 277 278
259 1 278 279
260 1 279 280
261 1 281 282
262 1 282 283
263 1 283 284
264 1 284 285
265 1 285 286
266 1 286 287
267 1 287 288
268 1 288 289
269 1 289 290
270 1 290 291
271 1 291 292
272 1 292 293
273 1 293 294
274 1 295 296
275 1 296 297
276 1 297 298
277 1 298 299
278 1 299 300
279 1 300 301
280 1 301 302
281 1 302 303
282 1 303 304
283 1 304 305
284 1 305 306
285 1 306 307
286 1 307 308
287 1 309 310
288 1 310 311
289 1 311 312
290 1 312 313
291 1 313 314
292 1 314 315
293 1 315 316
294 1 316 317
295 1 317 318
296 1 318 319
297 1 319 320
298 1 320 321
299 1 321 322
300 1 323 324
301 1 324 325
302 1 325 326
303 1 326 327
304 1 327 328
305 1 328 329
306 1 329 330
307 1 330 331
308 1 331 332
309 1 332 333
310 1 333 334
311 1 334 335
312 1 335 336
313 1 337 338
314 1 338 339
315 1 339 340
316 1 340 341
317 1 341 342
318 1 342 343
319 1 343 344
320 1 344 345
321 1 345 346
322 1 346 347
323 1 347 348
324 1 348 349
325 1 349 350
326 1 351 352
327 1 352 353
328 1 353 354
329 1 354 355
330 1 355 356
331 1 356 357
332 1 357 358
333 1 358 359
334 1 359 360
335 1 360 361
336 1 361 362
337 1 362 363
338 1 363 364
339 1 365 366
340 1 366 367
341 1 367 368
342 1 368 369
343 1 369 370
344 1 370 371
345 1 371 372
346 1 372 373
347 1 373 374
348 1 374 375
349 1 375 376
350 1 376 377
351 1 377 378
352 1 379 380
353 1 380 381
354 1 381 382
355 1 382 383
356 1 383 384
357 1 384 385
358 1 385 386
359 1 386 387
360 1 387 388
361 1 388 389
362 1 389 390
363 1 390 391
364 1 391 392
365 1 393 394
366 1 394 395
367 1 395 396
368 1 396 397
369 1 397 398
370 1 398 399
371 1 399 400
372 1 400 401
373 1 401 402
374 1 402 403
375 1 403 404
376 1 404 405
377 1 405 406
378 1 407 408
379 1 408 409
380 1 409 410
381 1 410 411
382 1 411 412
383 1 412 413
384 1 413 414
385 1 414 415
386 1 415 416
387 1 416 417
388 1 417 418
389 1 418 419
390 1 419 420
391 1 421 422
392 1 422 423
393 1 423 424
394 1 424 425
395 1 425 426
396 1 426 427
397 1 427 428
398 1 428 429
399 1 429 430
400 1 430 431
401 1 431 432
402 1 432 433
403 1 433 434
404 1 435 436
405 1 436 437
406 1 437 438
407 1 438 439
408 1 439 440
409 1 440 441
410 1 441 442
411 1 442 443
412 1 443 444
413 1 444 445
414 1 445 446
415 1 446 447
416 1 447 448
417 1 449 450
418 1 450 451
419 1 451 452
420 1 452 453
421 1 453 454
422 1 454 455
423 1 455 456
424 1 456 457
425 1 457 458
426 1 458 459
427 1 459 460
428 1 460 461
429 1 461 462
430 1 463 464
431 1 464 465
432 1 465 466
433 1 466 467
434 1 467 468