LAMMPS data file for polymer chains

960 atoms
900 bonds

2 atom types
1 bond types

0.0 32.0 xlo xhi
0.0 32.0 ylo yhi
0.0 32.0 zlo zhi

Masses

1 1.0  # Type A
2 1.0  # Type B

Atoms # molecular

1 1 1 0.000 0.000 0.000
2 1 1 0.000 0.000 0.865
3 1 1 0.000 0.000 1.730
4 1 1 0.000 0.000 2.595
5 1 1 0.000 0.000 3.459
6 1 1 0.000 0.000 4.324
7 1 1 0.000 0.000 5.189
8 1 1 0.000 0.000 6.054
9 1 1 0.000 0.000 6.919
10 1 1 0.000 0.000 7.784
11 1 1 0.000 0.000 8.649
12 1 1 0.000 0.000 9.514
13 1 1 0.000 0.000 10.378
14 1 1 0.000 0.000 11.243
15 1 1 0.000 0.000 12.108
16 1 1 0.000 0.000 12.973
17 2 1 5.079 0.000 0.000
18 2 1 5.079 0.000 0.865
19 2 1 5.079 0.000 1.730
20 2 1 5.079 0.000 2.595
21 2 1 5.079 0.000 3.459
22 2 1 5.079 0.000 4.324
23 2 1 5.079 0.000 5.189
24 2 1 5.079 0.000 6.054
25 2 1 5.079 0.000 6.919
26 2 1 5.079 0.000 7.784
27 2 1 5.079 0.000 8.649
28 2 1 5.079 0.000 9.514
29 2 1 5.079 0.000 10.378
30 2 1 5.079 0.000 11.243
31 2 1 5.079 0.000 12.108
32 2 1 5.079 0.000 12.973
33 3 1 10.159 0.000 0.000
34 3 1 10.159 0.000 0.865
35 3 1 10.159 0.000 1.730
36 3 1 10.159 0.000 2.595
37 3 1 10.159 0.000 3.459
38 3 1 10.159 0.000 4.324
39 3 1 10.159 0.000 5.189
40 3 1 10.159 0.000 6.054
41 3 1 10.159 0.000 6.919
42 3 1 10.159 0.000 7.784
43 3 1 10.159 0.000 8.649
44 3 1 10.159 0.000 9.514
45 3 1 10.159 0.000 10.378
46 3 1 10.159 0.000 11.243
47 3 1 10.159 0.000 12.108
48 3 1 10.159 0.000 12.973
49 4 1 15.238 0.000 0.000
50 4 1 15.238 0.000 0.865
51 4 1 15.238 0.000 1.730
52 4 1 15.238 0.000 2.595
53 4 1 15.238 0.000 3.459
54 4 1 15.238 0.000 4.324
55 4 1 15.238 0.000 5.189
56 4 1 15.238 0.000 6.054
57 4 1 15.238 0.000 6.919
58 4 1 15.238 0.000 7.784
59 4 1 15.238 0.000 8.649
60 4 1 15.238 0.000 9.514
61 4 1 15.238 0.000 10.378
62 4 1 15.238 0.000 11.243
63 4 1 15.238 0.000 12.108
64 4 1 15.238 0.000 12.973
65 5 1 20.317 0.000 0.000
66 5 1 20.317 0.000 0.865
67 5 1 20.317 0.000 1.730
68 5 1 20.317 0.000 2.595
69 5 1 20.317 0.000 3.459
70 5 1 20.317 0.000 4.324
71 5 1 20.317 0.000 5.189
72 5 1 20.317 0.000 6.054
73 5 1 20.317 0.000 6.919
74 5 1 20.317 0.000 7.784
75 5 1 20.317 0.000 8.649
76 5 1 20.317 0.000 9.514
77 5 1 20.317 0.000 10.378
78 5 1 20.317 0.000 11.243
79 5 1 20.317 0.000 12.108
80 5 1 20.317 0.000 12.973
81 6 1 25.397 0.000 0.000
82 6 1 25.397 0.000 0.865
83 6 1 25.397 0.000 1.730
84 6 1 25.397 0.000 2.595
85 6 1 25.397 0.000 3.459
86 6 1 25.397 0.000 4.324
87 6 1 25.397 0.000 5.189
88 6 1 25.397 0.000 6.054
89 6 1 25.397 0.000 6.919
90 6 1 25.397 0.000 7.784
91 6 1 25.397 0.000 8.649
92 6 1 25.397 0.000 9.514
93 6 1 25.397 0.000 10.378
94 6 1 25.397 0.000 11.243
95 6 1 25.397 0.000 12.108
96 6 1 25.397 0.000 12.973
97 7 1 0.000 6.038 0.000
98 7 1 0.000 6.038 0.865
99 7 1 0.000 6.038 1.730
100 7 1 0.000 6.038 2.595
101 7 1 0.000 6.038 3.459
102 7 1 0.000 6.038 4.324
103 7 1 0.000 6.038 5.189
104 7 1 0.000 6.038 6.054
105 7 1 0.000 6.038 6.919
106 7 1 0.000 6.038 7.784
107 7 1 0.000 6.038 8.649
108 7 1 0.000 6.038 9.514
109 7 1 0.000 6.038 10.378
110 7 1 0.000 6.038 11.243
111 7 1 0.000 6.038 12.108
112 7 1 0.000 6.038 12.973
113 8 1 5.079 6.038 0.000
114 8 1 5.079 6.038 0.865
115 8 1 5.079 6.038 1.730
116 8 1 5.079 6.038 2.595
117 8 1 5.079 6.038 3.459
118 8 1 5.079 6.038 4.324
119 8 1 5.079 6.038 5.189
120 8 1 5.079 6.038 6.054
121 8 1 5.079 6.038 6.919
122 8 1 5.079 6.038 7.784
123 8 1 5.079 6.038 8.649
124 8 1 5.079 6.038 9.514
125 8 1 5.079 6.038 10.378
126 8 1 5.079 6.038 11.243
127 8 1 5.079 6.038 12.108
128 8 1 5.079 6.038 12.973
129 9 1 10.159 6.038 0.000
130 9 1 10.159 6.038 0.865
131 9 1 10.159 6.038 1.730
132 9 1 10.159 6.038 2.595
133 9 1 10.159 6.038 3.459
134 9 1 10.159 6.038 4.324
135 9 1 10.159 6.038 5.189
136 9 1 10.159 6.038 6.054
137 9 1 10.159 6.038 6.919
138 9 1 10.159 6.038 7.784
139 9 1 10.159 6.038 8.649
140 9 1 10.159 6.038 9.514
141 9 1 10.159 6.038 10.378
142 9 1 10.159 6.038 11.243
143 9 1 10.159 6.038 12.108
144 9 1 10.159 6.038 12.973
145 10 1 15.238 6.038 0.000
146 10 1 15.238 6.038 0.865
147 10 1 15.238 6.038 1.730
148 10 1 15.238 6.038 2.595
149 10 1 15.238 6.038 3.459
150 10 1 15.238 6.038 4.324
151 10 1 15.238 6.038 5.189
152 10 1 15.238 6.038 6.054
153 10 1 15.238 6.038 6.919
154 10 1 15.238 6.038 7.784
155 10 1 15.238 6.038 8.649
156 10 1 15.238 6.038 9.514
157 10 1 15.238 6.038 10.378
158 10 1 15.238 6.038 11.243
159 10 1 15.238 6.038 12.108
160 10 1 15.238 6.038 12.973
161 11 1 20.317 6.038 0.000
162 11 1 20.317 6.038 0.865
163 11 1 20.317 6.038 1.730
164 11 1 20.317 6.038 2.595
165 11 1 20.317 6.038 3.459
166 11 1 20.317 6.038 4.324
167 11 1 20.317 6.038 5.189
168 11 1 20.317 6.038 6.054
169 11 1 20.317 6.038 6.919
170 11 1 20.317 6.038 7.784
171 11 1 20.317 6.038 8.649
172 11 1 20.317 6.038 9.514
173 11 1 20.317 6.038 10.378
174 11 1 20.317 6.038 11.243
175 11 1 20.317 6.038 12.108
176 11 1 20.317 6.038 12.973
177 12 1 25.397 6.038 0.000
178 12 1 25.397 6.038 0.865
179 12 1 25.397 6.038 1.730
180 12 1 25.397 6.038 2.595
181 12 1 25.397 6.038 3.459
182 12 1 25.397 6.038 4.324
183 12 1 25.397 6.038 5.189
184 12 1 25.397 6.038 6.054
185 12 1 25.397 6.038 6.919
186 12 1 25.397 6.038 7.784
187 12 1 25.397 6.038 8.649
188 12 1 25.397 6.038 9.514
189 12 1 25.397 6.038 10.378
190 12 1 25.397 6.038 11.243
191 12 1 25.397 6.038 12.108
192 12 1 25.397 6.038 12.973
193 13 1 0.000 12.075 0.000
194 13 1 0.000 12.075 0.865
195 13 1 0.000 12.075 1.730
196 13 1 0.000 12.075 2.595
197 13 1 0.000 12.075 3.459
198 13 1 0.000 12.075 4.324
199 13 1 0.000 12.075 5.189
200 13 1 0.000 12.075 6.054
201 13 1 0.000 12.075 6.919
202 13 1 0.000 12.075 7.784
203 13 1 0.000 12.075 8.649
204 13 1 0.000 12.075 9.514
205 13 1 0.000 12.075 10.378
206 13 1 0.000 12.075 11.243
207 13 1 0.000 12.075 12.108
208 13 1 0.000 12.075 12.973
209 14 1 5.079 12.075 0.000
210 14 1 5.079 12.075 0.865
211 14 1 5.079 12.075 1.730
212 14 1 5.079 12.075 2.595
213 14 1 5.079 12.075 3.459
214 14 1 5.079 12.075 4.324
215 14 1 5.079 12.075 5.189
216 14 1 5.079 12.075 6.054
217 14 1 5.079 12.075 6.919
218 14 1 5.079 12.075 7.784
219 14 1 5.079 12.075 8.649
220 14 1 5.079 12.075 9.514
221 14 1 5.079 12.075 10.378
222 14 1 5.079 12.075 11.243
223 14 1 5.079 12.075 12.108
224 14 1 5.079 12.075 12.973
225 15 1 10.159 12.075 0.000
226 15 1 10.159 12.075 0.865
227 15 1 10.159 12.075 1.730
228 15 1 10.159 12.075 2.595
229 15 1 10.159 12.075 3.459
230 15 1 10.159 12.075 4.324
231 15 1 10.159 12.075 5.189
232 15 1 10.159 12.075 6.054
233 15 1 10.159 12.075 6.919
234 15 1 10.159 12.075 7.784
235 15 1 10.159 12.075 8.649
236 15 1 10.159 12.075 9.514
237 15 1 10.159 12.075 10.378
238 15 1 10.159 12.075 11.243
239 15 1 10.159 12.075 12.108
240 15 1 10.159 12.075 12.973
241 16 1 15.238 12.075 0.000
242 16 1 15.238 12.075 0.865
243 16 1 15.238 12.075 1.730
244 16 1 15.238 12.075 2.595
245 16 1 15.238 12.075 3.459
246 16 1 15.238 12.075 4.324
247 16 1 15.238 12.075 5.189
248 16 1 15.238 12.075 6.054
249 16 1 15.238 12.075 6.919
250 16 1 15.238 12.075 7.784
251 16 1 15.238 12.075 8.649
252 16 1 15.238 12.075 9.514
253 16 1 15.238 12.075 10.378
254 16 1 15.238 12.075 11.243
255 16 1 15.238 12.075 12.108
256 16 1 15.238 12.075 12.973
257 17 1 20.317 12.075 0.000
258 17 1 20.317 12.075 0.865
259 17 1 20.317 12.075 1.730
260 17 1 20.317 12.075 2.595
261 17 1 20.317 12.075 3.459
262 17 1 20.317 12.075 4.324
263 17 1 20.317 12.075 5.189
264 17 1 20.317 12.075 6.054
265 17 1 20.317 12.075 6.919
266 17 1 20.317 12.075 7.784
267 17 1 20.317 12.075 8.649
268 17 1 20.317 12.075 9.514
269 17 1 20.317 12.075 10.378
270 17 1 20.317 12.075 11.243
271 17 1 20.317 12.075 12.108
272 17 1 20.317 12.075 12.973
273 18 1 25.397 12.075 0.000
274 18 1 25.397 12.075 0.865
275 18 1 25.397 12.075 1.730
276 18 1 25.397 12.075 2.595
277 18 1 25.397 12.075 3.459
278 18 1 25.397 12.075 4.324
279 18 1 25.397 12.075 5.189
280 18 1 25.397 12.075 6.054
281 18 1 25.397 12.075 6.919
282 18 1 25.397 12.075 7.784
283 18 1 25.397 12.075 8.649
284 18 1 25.397 12.075 9.514
285 18 1 25.397 12.075 10.378
286 18 1 25.397 12.075 11.243
287 18 1 25.397 12.075 12.108
288 18 1 25.397 12.075 12.973
289 19 1 0.000 18.113 0.000
290 19 1 0.000 18.113 0.865
291 19 1 0.000 18.113 1.730
292 19 1 0.000 18.113 2.595
293 19 1 0.000 18.113 3.459
294 19 1 0.000 18.113 4.324
295 19 1 0.000 18.113 5.189
296 19 1 0.000 18.113 6.054
297 19 1 0.000 18.113 6.919
298 19 1 0.000 18.113 7.784
299 19 1 0.000 18.113 8.649
300 19 1 0.000 18.113 9.514
301 19 1 0.000 18.113 10.378
302 19 1 0.000 18.113 11.243
303 19 1 0.000 18.113 12.108
304 19 1 0.000 18.113 12.973
305 20 1 5.079 18.113 0.000
306 20 1 5.079 18.113 0.865
307 20 1 5.079 18.113 1.730
308 20 1 5.079 18.113 2.595
309 20 1 5.079 18.113 3.459
310 20 1 5.079 18.113 4.324
311 20 1 5.079 18.113 5.189
312 20 1 5.079 18.113 6.054
313 20 1 5.079 18.113 6.919
314 20 1 5.079 18.113 7.784
315 20 1 5.079 18.113 8.649
316 20 1 5.079 18.113 9.514
317 20 1 5.079 18.113 10.378
318 20 1 5.079 18.113 11.243
319 20 1 5.079 18.113 12.108
320 20 1 5.079 18.113 12.973
321 21 1 10.159 18.113 0.000
322 21 1 10.159 18.113 0.865
323 21 1 10.159 18.113 1.730
324 21 1 10.159 18.113 2.595
325 21 1 10.159 18.113 3.459
326 21 1 10.159 18.113 4.324
327 21 1 10.159 18.113 5.189
328 21 1 10.159 18.113 6.054
329 21 1 10.159 18.113 6.919
330 21 1 10.159 18.113 7.784
331 21 1 10.159 18.113 8.649
332 21 1 10.159 18.113 9.514
333 21 1 10.159 18.113 10.378
334 21 1 10.159 18.113 11.243
335 21 1 10.159 18.113 12.108
336 21 1 10.159 18.113 12.973
337 22 1 15.238 18.113 0.000
338 22 1 15.238 18.113 0.865
339 22 1 15.238 18.113 1.730
340 22 1 15.238 18.113 2.595
341 22 1 15.238 18.113 3.459
342 22 1 15.238 18.113 4.324
343 22 1 15.238 18.113 5.189
344 22 1 15.238 18.113 6.054
345 22 1 15.238 18.113 6.919
346 22 1 15.238 18.113 7.784
347 22 1 15.238 18.113 8.649
348 22 1 15.238 18.113 9.514
349 22 1 15.238 18.113 10.378
350 22 1 15.238 18.113 11.243
351 22 1 15.238 18.113 12.108
352 22 1 15.238 18.113 12.973
353 23 1 20.317 18.113 0.000
354 23 1 20.317 18.113 0.865
355 23 1 20.317 18.113 1.730
356 23 1 20.317 18.113 2.595
357 23 1 20.317 18.113 3.459
358 23 1 20.317 18.113 4.324
359 23 1 20.317 18.113 5.189
360 23 1 20.317 18.113 6.054
361 23 1 20.317 18.113 6.919
362 23 1 20.317 18.113 7.784
363 23 1 20.317 18.113 8.649
364 23 1 20.317 18.113 9.514
365 23 1 20.317 18.113 10.378
366 23 1 20.317 18.113 11.243
367 23 1 20.317 18.113 12.108
368 23 1 20.317 18.113 12.973
369 24 1 25.397 18.113 0.000
370 24 1 25.397 18.113 0.865
371 24 1 25.397 18.113 1.730
372 24 1 25.397 18.113 2.595
373 24 1 25.397 18.113 3.459
374 24 1 25.397 18.113 4.324
375 24 1 25.397 18.113 5.189
376 24 1 25.397 18.113 6.054
377 24 1 25.397 18.113 6.919
378 24 1 25.397 18.113 7.784
379 24 1 25.397 18.113 8.649
380 24 1 25.397 18.113 9.514
381 24 1 25.397 18.113 10.378
382 24 1 25.397 18.113 11.243
383 24 1 25.397 18.113 12.108
384 24 1 25.397 18.113 12.973
385 25 1 0.000 24.151 0.000
386 25 1 0.000 24.151 0.865
387 25 1 0.000 24.151 1.730
388 25 1 0.000 24.151 2.595
389 25 1 0.000 24.151 3.459
390 25 1 0.000 24.151 4.324
391 25 1 0.000 24.151 5.189
392 25 1 0.000 24.151 6.054
393 25 1 0.000 24.151 6.919
394 25 1 0.000 24.151 7.784
395 25 1 0.000 24.151 8.649
396 25 1 0.000 24.151 9.514
397 25 1 0.000 24.151 10.378
398 25 1 0.000 24.151 11.243
399 25 1 0.000 24.151 12.108
400 25 1 0.000 24.151 12.973
401 26 1 5.079 24.151 0.000
402 26 1 5.079 24.151 0.865
403 26 1 5.079 24.151 1.730
404 26 1 5.079 24.151 2.595
405 26 1 5.079 24.151 3.459
406 26 1 5.079 24.151 4.324
407 26 1 5.079 24.151 5.189
408 26 1 5.079 24.151 6.054
409 26 1 5.079 24.151 6.919
410 26 1 5.079 24.151 7.784
411 26 1 5.079 24.151 8.649
412 26 1 5.079 24.151 9.514
413 26 1 5.079 24.151 10.378
414 26 1 5.079 24.151 11.243
415 26 1 5.079 24.151 12.108
416 26 1 5.079 24.151 12.973
417 27 1 10.159 24.151 0.000
418 27 1 10.159 24.151 0.865
419 27 1 10.159 24.151 1.730
420 27 1 10.159 24.151 2.595
421 27 1 10.159 24.151 3.459
422 27 1 10.159 24.151 4.324
423 27 1 10.159 24.151 5.189
424 27 1 10.159 24.151 6.054
425 27 1 10.159 24.151 6.919
426 27 1 10.159 24.151 7.784
427 27 1 10.159 24.151 8.649
428 27 1 10.159 24.151 9.514
429 27 1 10.159 24.151 10.378
430 27 1 10.159 24.151 11.243
431 27 1 10.159 24.151 12.108
432 27 1 10.159 24.151 12.973
433 28 1 15.238 24.151 0.000
434 28 1 15.238 24.151 0.865
435 28 1 15.238 24.151 1.730
436 28 1 15.238 24.151 2.595
437 28 1 15.238 24.151 3.459
438 28 1 15.238 24.151 4.324
439 28 1 15.238 24.151 5.189
440 28 1 15.238 24.151 6.054
441 28 1 15.238 24.151 6.919
442 28 1 15.238 24.151 7.784
443 28 1 15.238 24.151 8.649
444 28 1 15.238 24.151 9.514
445 28 1 15.238 24.151 10.378
446 28 1 15.238 24.151 11.243
447 28 1 15.238 24.151 12.108
448 28 1 15.238 24.151 12.973
449 29 1 20.317 24.151 0.000
450 29 1 20.317 24.151 0.865
451 29 1 20.317 24.151 1.730
452 29 1 20.317 24.151 2.595
453 29 1 20.317 24.151 3.459
454 29 1 20.317 24.151 4.324
455 29 1 20.317 24.151 5.189
456 29 1 20.317 24.151 6.054
457 29 1 20.317 24.151 6.919
458 29 1 20.317 24.151 7.784
459 29 1 20.317 24.151 8.649
460 29 1 20.317 24.151 9.514
461 29 1 20.317 24.151 10.378
462 29 1 20.317 24.151 11.243
463 29 1 20.317 24.151 12.108
464 29 1 20.317 24.151 12.973
465 30 1 25.397 24.151 0.000
466 30 1 25.397 24.151 0.865
467 30 1 25.397 24.151 1.730
468 30 1 25.397 24.151 2.595
469 30 1 25.397 24.151 3.459
470 30 1 25.397 24.151 4.324
471 30 1 25.397 24.151 5.189
472 30 1 25.397 24.151 6.054
473 30 1 25.397 24.151 6.919
474 30 1 25.397 24.151 7.784
475 30 1 25.397 24.151 8.649
476 30 1 25.397 24.151 9.514
477 30 1 25.397 24.151 10.378
478 30 1 25.397 24.151 11.243
479 30 1 25.397 24.151 12.108
480 30 1 25.397 24.151 12.973
481 31 2 2.540 3.019 17.297
482 31 2 2.540 3.019 18.162
483 31 2 2.540 3.019 19.027
484 31 2 2.540 3.019 19.892
485 31 2 2.540 3.019 20.757
486 31 2 2.540 3.019 21.622
487 31 2 2.540 3.019 22.486
488 31 2 2.540 3.019 23.351
489 31 2 2.540 3.019 24.216
490 31 2 2.540 3.019 25.081
491 31 2 2.540 3.019 25.946
492 31 2 2.540 3.019 26.811
493 31 2 2.540 3.019 27.676
494 31 2 2.540 3.019 28.541
495 31 2 2.540 3.019 29.405
496 31 2 2.540 3.019 30.270
497 32 2 7.619 3.019 17.297
498 32 2 7.619 3.019 18.162
499 32 2 7.619 3.019 19.027
500 32 2 7.619 3.019 19.892
501 32 2 7.619 3.019 20.757
502 32 2 7.619 3.019 21.622
503 32 2 7.619 3.019 22.486
504 32 2 7.619 3.019 23.351
505 32 2 7.619 3.019 24.216
506 32 2 7.619 3.019 25.081
507 32 2 7.619 3.019 25.946
508 32 2 7.619 3.019 26.811
509 32 2 7.619 3.019 27.676
510 32 2 7.619 3.019 28.541
511 32 2 7.619 3.019 29.405
512 32 2 7.619 3.019 30.270
513 33 2 12.698 3.019 17.297
514 33 2 12.698 3.019 18.162
515 33 2 12.698 3.019 19.027
516 33 2 12.698 3.019 19.892
517 33 2 12.698 3.019 20.757
518 33 2 12.698 3.019 21.622
519 33 2 12.698 3.019 22.486
520 33 2 12.698 3.019 23.351
521 33 2 12.698 3.019 24.216
522 33 2 12.698 3.019 25.081
523 33 2 12.698 3.019 25.946
524 33 2 12.698 3.019 26.811
525 33 2 12.698 3.019 27.676
526 33 2 12.698 3.019 28.541
527 33 2 12.698 3.019 29.405
528 33 2 12.698 3.019 30.270
529 34 2 17.778 3.019 17.297
530 34 2 17.778 3.019 18.162
531 34 2 17.778 3.019 19.027
532 34 2 17.778 3.019 19.892
533 34 2 17.778 3.019 20.757
534 34 2 17.778 3.019 21.622
535 34 2 17.778 3.019 22.486
536 34 2 17.778 3.019 23.351
537 34 2 17.778 3.019 24.216
538 34 2 17.778 3.019 25.081
539 34 2 17.778 3.019 25.946
540 34 2 17.778 3.019 26.811
541 34 2 17.778 3.019 27.676
542 34 2 17.778 3.019 28.541
543 34 2 17.778 3.019 29.405
544 34 2 17.778 3.019 30.270
545 35 2 22.857 3.019 17.297
546 35 2 22.857 3.019 18.162
547 35 2 22.857 3.019 19.027
548 35 2 22.857 3.019 19.892
549 35 2 22.857 3.019 20.757
550 35 2 22.857 3.019 21.622
551 35 2 22.857 3.019 22.486
552 35 2 22.857 3.019 23.351
553 35 2 22.857 3.019 24.216
554 35 2 22.857 3.019 25.081
555 35 2 22.857 3.019 25.946
556 35 2 22.857 3.019 26.811
557 35 2 22.857 3.019 27.676
558 35 2 22.857 3.019 28.541
559 35 2 22.857 3.019 29.405
560 35 2 22.857 3.019 30.270
561 36 2 27.937 3.019 17.297
562 36 2 27.937 3.019 18.162
563 36 2 27.937 3.019 19.027
564 36 2 27.937 3.019 19.892
565 36 2 27.937 3.019 20.757
566 36 2 27.937 3.019 21.622
567 36 2 27.937 3.019 22.486
568 36 2 27.937 3.019 23.351
569 36 2 27.937 3.019 24.216
570 36 2 27.937 3.019 25.081
571 36 2 27.937 3.019 25.946
572 36 2 27.937 3.019 26.811
573 36 2 27.937 3.019 27.676
574 36 2 27.937 3.019 28.541
575 36 2 27.937 3.019 29.405
576 36 2 27.937 3.019 30.270
577 37 2 2.540 9.057 17.297
578 37 2 2.540 9.057 18.162
579 37 2 2.540 9.057 19.027
580 37 2 2.540 9.057 19.892
581 37 2 2.540 9.057 20.757
582 37 2 2.540 9.057 21.622
583 37 2 2.540 9.057 22.486
584 37 2 2.540 9.057 23.351
585 37 2 2.540 9.057 24.216
586 37 2 2.540 9.057 25.081
587 37 2 2.540 9.057 25.946
588 37 2 2.540 9.057 26.811
589 37 2 2.540 9.057 27.676
590 37 2 2.540 9.057 28.541
591 37 2 2.540 9.057 29.405
592 37 2 2.540 9.057 30.270
593 38 2 7.619 9.057 17.297
594 38 2 7.619 9.057 18.162
595 38 2 7.619 9.057 19.027
596 38 2 7.619 9.057 19.892
597 38 2 7.619 9.057 20.757
598 38 2 7.619 9.057 21.622
599 38 2 7.619 9.057 22.486
600 38 2 7.619 9.057 23.351
601 38 2 7.619 9.057 24.216
602 38 2 7.619 9.057 25.081
603 38 2 7.619 9.057 25.946
604 38 2 7.619 9.057 26.811
605 38 2 7.619 9.057 27.676
606 38 2 7.619 9.057 28.541
607 38 2 7.619 9.057 29.405
608 38 2 7.619 9.057 30.270
609 39 2 12.698 9.057 17.297
610 39 2 12.698 9.057 18.162
611 39 2 12.698 9.057 19.027
612 39 2 12.698 9.057 19.892
613 39 2 12.698 9.057 20.757
614 39 2 12.698 9.057 21.622
615 39 2 12.698 9.057 22.486
616 39 2 12.698 9.057 23.351
617 39 2 12.698 9.057 24.216
618 39 2 12.698 9.057 25.081
619 39 2 12.698 9.057 25.946
620 39 2 12.698 9.057 26.811
621 39 2 12.698 9.057 27.676
622 39 2 12.698 9.057 28.541
623 39 2 12.698 9.057 29.405
624 39 2 12.698 9.057 30.270
625 40 2 17.778 9.057 17.297
626 40 2 17.778 9.057 18.162
627 40 2 17.778 9.057 19.027
628 40 2 17.778 9.057 19.892
629 40 2 17.778 9.057 20.757
630 40 2 17.778 9.057 21.622
631 40 2 17.778 9.057 22.486
632 40 2 17.778 9.057 23.351
633 40 2 17.778 9.057 24.216
634 40 2 17.778 9.057 25.081
635 40 2 17.778 9.057 25.946
636 40 2 17.778 9.057 26.811
637 40 2 17.778 9.057 27.676
638 40 2 17.778 9.057 28.541
639 40 2 17.778 9.057 29.405
640 40 2 17.778 9.057 30.270
641 41 2 22.857 9.057 17.297
642 41 2 22.857 9.057 18.162
643 41 2 22.857 9.057 19.027
644 41 2 22.857 9.057 19.892
645 41 2 22.857 9.057 20.757
646 41 2 22.857 9.057 21.622
647 41 2 22.857 9.057 22.486
648 41 2 22.857 9.057 23.351
649 41 2 22.857 9.057 24.216
650 41 2 22.857 9.057 25.081
651 41 2 22.857 9.057 25.946
652 41 2 22.857 9.057 26.811
653 41 2 22.857 9.057 27.676
654 41 2 22.857 9.057 28.541
655 41 2 22.857 9.057 29.405
656 41 2 22.857 9.057 30.270
657 42 2 27.937 9.057 17.297
658 42 2 27.937 9.057 18.162
659 42 2 27.937 9.057 19.027
660 42 2 27.937 9.057 19.892
661 42 2 27.937 9.057 20.757
662 42 2 27.937 9.057 21.622
663 42 2 27.937 9.057 22.486
664 42 2 27.937 9.057 23.351
665 42 2 27.937 9.057 24.216
666 42 2 27.937 9.057 25.081
667 42 2 27.937 9.057 25.946
668 42 2 27.937 9.057 26.811
669 42 2 27.937 9.057 27.676
670 42 2 27.937 9.057 28.541
671 42 2 27.937 9.057 29.405
672 42 2 27.937 9.057 30.270
673 43 2 2.540 15.094 17.297
674 43 2 2.540 15.094 18.162
675 43 2 2.540 15.094 19.027
676 43 2 2.540 15.094 19.892
677 43 2 2.540 15.094 20.757
678 43 2 2.540 15.094 21.622
679 43 2 2.540 15.094 22.486
680 43 2 2.540 15.094 23.351
681 43 2 2.540 15.094 24.216
682 43 2 2.540 15.094 25.081
683 43 2 2.540 15.094 25.946
684 43 2 2.540 15.094 26.811
685 43 2 2.540 15.094 27.676
686 43 2 2.540 15.094 28.541
687 43 2 2.540 15.094 29.405
688 43 2 2.540 15.094 30.270
689 44 2 7.619 15.094 17.297
690 44 2 7.619 15.094 18.162
691 44 2 7.619 15.094 19.027
692 44 2 7.619 15.094 19.892
693 44 2 7.619 15.094 20.757
694 44 2 7.619 15.094 21.622
695 44 2 7.619 15.094 22.486
696 44 2 7.619 15.094 23.351
697 44 2 7.619 15.094 24.216
698 44 2 7.619 15.094 25.081
699 44 2 7.619 15.094 25.946
700 44 2 7.619 15.094 26.811
701 44 2 7.619 15.094 27.676
702 44 2 7.619 15.094 28.541
703 44 2 7.619 15.094 29.405
704 44 2 7.619 15.094 30.270
705 45 2 12.698 15.094 17.297
706 45 2 12.698 15.094 18.162
707 45 2 12.698 15.094 19.027
708 45 2 12.698 15.094 19.892
709 45 2 12.698 15.094 20.757
710 45 2 12.698 15.094 21.622
711 45 2 12.698 15.094 22.486
712 45 2 12.698 15.094 23.351
713 45 2 12.698 15.094 24.216
714 45 2 12.698 15.094 25.081
715 45 2 12.698 15.094 25.946
716 45 2 12.698 15.094 26.811
717 45 2 12.698 15.094 27.676
718 45 2 12.698 15.094 28.541
719 45 2 12.698 15.094 29.405
720 45 2 12.698 15.094 30.270
721 46 2 17.778 15.094 17.297
722 46 2 17.778 15.094 18.162
723 46 2 17.778 15.094 19.027
724 46 2 17.778 15.094 19.892
725 46 2 17.778 15.094 20.757
726 46 2 17.778 15.094 21.622
727 46 2 17.778 15.094 22.486
728 46 2 17.778 15.094 23.351
729 46 2 17.778 15.094 24.216
730 46 2 17.778 15.094 25.081
731 46 2 17.778 15.094 25.946
732 46 2 17.778 15.094 26.811
733 46 2 17.778 15.094 27.676
734 46 2 17.778 15.094 28.541
735 46 2 17.778 15.094 29.405
736 46 2 17.778 15.094 30.270
737 47 2 22.857 15.094 17.297
738 47 2 22.857 15.094 18.162
739 47 2 22.857 15.094 19.027
740 47 2 22.857 15.094 19.892
741 47 2 22.857 15.094 20.757
742 47 2 22.857 15.094 21.622
743 47 2 22.857 15.094 22.486
744 47 2 22.857 15.094 23.351
745 47 2 22.857 15.094 24.216
746 47 2 22.857 15.094 25.081
747 47 2 22.857 15.094 25.946
748 47 2 22.857 15.094 26.811
749 47 2 22.857 15.094 27.676
750 47 2 22.857 15.094 28.541
751 47 2 22.857 15.094 29.405
752 47 2 22.857 15.094 30.270
753 48 2 27.937 15.094 17.297
754 48 2 27.937 15.094 18.162
755 48 2 27.937 15.094 19.027
756 48 2 27.937 15.094 19.892
757 48 2 27.937 15.094 20.757
758 48 2 27.937 15.094 21.622
759 48 2 27.937 15.094 22.486
760 48 2 27.937 15.094 23.351
761 48 2 27.937 15.094 24.216
762 48 2 27.937 15.094 25.081
763 48 2 27.937 15.094 25.946
764 48 2 27.937 15.094 26.811
765 48 2 27.937 15.094 27.676
766 48 2 27.937 15.094 28.541
767 48 2 27.937 15.094 29.405
768 48 2 27.937 15.094 30.270
769 49 2 2.540 21.132 17.297
770 49 2 2.540 21.132 18.162
771 49 2 2.540 21.132 19.027
772 49 2 2.540 21.132 19.892
773 49 2 2.540 21.132 20.757
774 49 2 2.540 21.132 21.622
775 49 2 2.540 21.132 22.486
776 49 2 2.540 21.132 23.351
777 49 2 2.540 21.132 24.216
778 49 2 2.540 21.132 25.081
779 49 2 2.540 21.132 25.946
780 49 2 2.540 21.132 26.811
781 49 2 2.540 21.132 27.676
782 49 2 2.540 21.132 28.541
783 49 2 2.540 21.132 29.405
784 49 2 2.540 21.132 30.270
785 50 2 7.619 21.132 17.297
786 50 2 7.619 21.132 18.162
787 50 2 7.619 21.132 19.027
788 50 2 7.619 21.132 19.892
789 50 2 7.619 21.132 20.757
790 50 2 7.619 21.132 21.622
791 50 2 7.619 21.132 22.486
792 50 2 7.619 21.132 23.351
793 50 2 7.619 21.132 24.216
794 50 2 7.619 21.132 25.081
795 50 2 7.619 21.132 25.946
796 50 2 7.619 21.132 26.811
797 50 2 7.619 21.132 27.676
798 50 2 7.619 21.132 28.541
799 50 2 7.619 21.132 29.405
800 50 2 7.619 21.132 30.270
801 51 2 12.698 21.132 17.297
802 51 2 12.698 21.132 18.162
803 51 2 12.698 21.132 19.027
804 51 2 12.698 21.132 19.892
805 51 2 12.698 21.132 20.757
806 51 2 12.698 21.132 21.622
807 51 2 12.698 21.132 22.486
808 51 2 12.698 21.132 23.351
809 51 2 12.698 21.132 24.216
810 51 2 12.698 21.132 25.081
811 51 2 12.698 21.132 25.946
812 51 2 12.698 21.132 26.811
813 51 2 12.698 21.132 27.676
814 51 2 12.698 21.132 28.541
815 51 2 12.698 21.132 29.405
816 51 2 12.698 21.132 30.270
817 52 2 17.778 21.132 17.297
818 52 2 17.778 21.132 18.162
819 52 2 17.778 21.132 19.027
820 52 2 17.778 21.132 19.892
821 52 2 17.778 21.132 20.757
822 52 2 17.778 21.132 21.622
823 52 2 17.778 21.132 22.486
824 52 2 17.778 21.132 23.351
825 52 2 17.778 21.132 24.216
826 52 2 17.778 21.132 25.081
827 52 2 17.778 21.132 25.946
828 52 2 17.778 21.132 26.811
829 52 2 17.778 21.132 27.676
830 52 2 17.778 21.132 28.541
831 52 2 17.778 21.132 29.405
832 52 2 17.778 21.132 30.270
833 53 2 22.857 21.132 17.297
834 53 2 22.857 21.132 18.162
835 53 2 22.857 21.132 19.027
836 53 2 22.857 21.132 19.892
837 53 2 22.857 21.132 20.757
838 53 2 22.857 21.132 21.622
839 53 2 22.857 21.132 22.486
840 53 2 22.857 21.132 23.351
841 53 2 22.857 21.132 24.216
842 53 2 22.857 21.132 25.081
843 53 2 22.857 21.132 25.946
844 53 2 22.857 21.132 26.811
845 53 2 22.857 21.132 27.676
846 53 2 22.857 21.132 28.541
847 53 2 22.857 21.132 29.405
848 53 2 22.857 21.132 30.270
849 54 2 27.937 21.132 17.297
850 54 2 27.937 21.132 18.162
851 54 2 27.937 21.132 19.027
852 54 2 27.937 21.132 19.892
853 54 2 27.937 21.132 20.757
854 54 2 27.937 21.132 21.622
855 54 2 27.937 21.132 22.486
856 54 2 27.937 21.132 23.351
857 54 2 27.937 21.132 24.216
858 54 2 27.937 21.132 25.081
859 54 2 27.937 21.132 25.946
860 54 2 27.937 21.132 26.811
861 54 2 27.937 21.132 27.676
862 54 2 27.937 21.132 28.541
863 54 2 27.937 21.132 29.405
864 54 2 27.937 21.132 30.270
865 55 2 2.540 27.170 17.297
866 55 2 2.540 27.170 18.162
867 55 2 2.540 27.170 19.027
868 55 2 2.540 27.170 19.892
869 55 2 2.540 27.170 20.757
870 55 2 2.540 27.170 21.622
871 55 2 2.540 27.170 22.486
872 55 2 2.540 27.170 23.351
873 55 2 2.540 27.170 24.216
874 55 2 2.540 27.170 25.081
875 55 2 2.540 27.170 25.946
876 55 2 2.540 27.170 26.811
877 55 2 2.540 27.170 27.676
878 55 2 2.540 27.170 28.541
879 55 2 2.540 27.170 29.405
880 55 2 2.540 27.170 30.270
881 56 2 7.619 27.170 17.297
882 56 2 7.619 27.170 18.162
883 56 2 7.619 27.170 19.027
884 56 2 7.619 27.170 19.892
885 56 2 7.619 27.170 20.757
886 56 2 7.619 27.170 21.622
887 56 2 7.619 27.170 22.486
888 56 2 7.619 27.170 23.351
889 56 2 7.619 27.170 24.216
890 56 2 7.619 27.170 25.081
891 56 2 7.619 27.170 25.946
892 56 2 7.619 27.170 26.811
893 56 2 7.619 27.170 27.676
894 56 2 7.619 27.170 28.541
895 56 2 7.619 27.170 29.405
896 56 2 7.619 27.170 30.270
897 57 2 12.698 27.170 17.297
898 57 2 12.698 27.170 18.162
899 57 2 12.698 27.170 19.027
900 57 2 12.698 27.170 19.892
901 57 2 12.698 27.170 20.757
902 57 2 12.698 27.170 21.622
903 57 2 12.698 27.170 22.486
904 57 2 12.698 27.170 23.351
905 57 2 12.698 27.170 24.216
906 57 2 12.698 27.170 25.081
907 57 2 12.698 27.170 25.946
908 57 2 12.698 27.170 26.811
909 57 2 12.698 27.170 27.676
910 57 2 12.698 27.170 28.541
911 57 2 12.698 27.170 29.405
912 57 2 12.698 27.170 30.270
913 58 2 17.778 27.170 17.297
914 58 2 17.778 27.170 18.162
915 58 2 17.778 27.170 19.027
916 58 2 17.778 27.170 19.892
917 58 2 17.778 27.170 20.757
918 58 2 17.778 27.170 21.622
919 58 2 17.778 27.170 22.486
920 58 2 17.778 27.170 23.351
921 58 2 17.778 27.170 24.216
922 58 2 17.778 27.170 25.081
923 58 2 17.778 27.170 25.946
924 58 2 17.778 27.170 26.811
925 58 2 17.778 27.170 27.676
926 58 2 17.778 27.170 28.541
927 58 2 17.778 27.170 29.405
928 58 2 17.778 27.170 30.270
929 59 2 22.857 27.170 17.297
930 59 2 22.857 27.170 18.162
931 59 2 22.857 27.170 19.027
932 59 2 22.857 27.170 19.892
933 59 2 22.857 27.170 20.757
934 59 2 22.857 27.170 21.622
935 59 2 22.857 27.170 22.486
936 59 2 22.857 27.170 23.351
937 59 2 22.857 27.170 24.216
938 59 2 22.857 27.170 25.081
939 59 2 22.857 27.170 25.946
940 59 2 22.857 27.170 26.811
941 59 2 22.857 27.170 27.676
942 59 2 22.857 27.170 28.541
943 59 2 22.857 27.170 29.405
944 59 2 22.857 27.170 30.270
945 60 2 27.937 27.170 17.297
946 60 2 27.937 27.170 18.162
947 60 2 27.937 27.170 19.027
948 60 2 27.937 27.170 19.892
949 60 2 27.937 27.170 20.757
950 60 2 27.937 27.170 21.622
951 60 2 27.937 27.170 22.486
952 60 2 27.937 27.170 23.351
953 60 2 27.937 27.170 24.216
954 60 2 27.937 27.170 25.081
955 60 2 27.937 27.170 25.946
956 60 2 27.937 27.170 26.811
957 60 2 27.937 27.170 27.676
958 60 2 27.937 27.170 28.541
959 60 2 27.937 27.170 29.405
960 60 2 27.937 27.170 30.270

Bonds

1 1 1 2
2 1 2 3
3 1 3 4
4 1 4 5
5 1 5 6
6 1 6 7
7 1 7 8
8 1 8 9
9 1 9 10
10 1 10 11
11 1 11 12
12 1 12 13
13 1 13 14
14 1 14 15
15 1 15 16
16 1 17 18
17 1 18 19
18 1 19 20
19 1 20 21
20 1 21 22
21 1 22 23
22 1 23 24
23 1 24 25
24 1 25 26
25 1 26 27
26 1 27 28
27 1 28 29
28 1 29 30
29 1 30 31
30 1 31 32
31 1 33 34
32 1 34 35
33 1 35 36
34 1 36 37
35 1 37 38
36 1 38 39
37 1 39 40
38 1 40 41
39 1 41 42
40 1 42 43
41 1 43 44
42 1 44 45
43 1 45 46
44 1 46 47
45 1 47 48
46 1 49 50
47 1 50 51
48 1 51 52
49 1 52 53
50 1 53 54
51 1 54 55
52 1 55 56
53 1 56 57
54 1 57 58
55 1 58 59
56 1 59 60
57 1 60 61
58 1 61 62
59 1 62 63
60 1 63 64
61 1 65 66
62 1 66 67
63 1 67 68
64 1 68 69
65 1 69 70
66 1 70 71
67 1 71 72
68 1 72 73
69 1 73 74
70 1 74 75
71 1 75 76
72 1 76 77
73 1 77 78
74 1 78 79
75 1 79 80
76 1 81 82
77 1 82 83
78 1 83 84
79 1 84 85
80 1 85 86
81 1 86 87
82 1 87 88
83 1 88 89
84 1 89 90
85 1 90 91
86 1 91 92
87 1 92 93
88 1 93 94
89 1 94 95
90 1 95 96
91 1 97 98
92 1 98 99
93 1 99 100
94 1 100 101
95 1 101 102
96 1 102 103
97 1 103 104
98 1 104 105
99 1 105 106
100 1 106 107
101 1 107 108
102 1 108 109
103 1 109 110
104 1 110 111
105 1 111 112
106 1 113 114
107 1 114 115
108 1 115 116
109 1 116 117
110 1 117 118
111 1 118 119
112 1 119 120
113 1 120 121
114 1 121 122
115 1 122 123
116 1 123 124
117 1 124 125
118 1 125 126
119 1 126 127
120 1 127 128
121 1 129 130
122 1 130 131
123 1 131 132
124 1 132 133
125 1 133 134
126 1 134 135
127 1 135 136
128 1 136 137
129 1 137 138
130 1 138 139
131 1 139 140
132 1 140 141
133 1 141 142
134 1 142 143
135 1 143 144
136 1 145 146
137 1 146 147
138 1 147 148
139 1 148 149
140 1 149 150
141 1 150 151
142 1 151 152
143 1 152 153
144 1 153 154
145 1 154 155
146 1 155 156
147 1 156 157
148 1 157 158
149 1 158 159
150 1 159 160
151 1 161 162
152 1 162 163
153 1 163 164
154 1 164 165
155 1 165 166
156 1 166 167
157 1 167 168
158 1 168 169
159 1 169 170
160 1 170 171
161 1 171 172
162 1 172 173
163 1 173 174
164 1 174 175
165 1 175 176
166 1 177 178
167 1 178 179
168 1 179 180
169 1 180 181
170 1 181 182
171 1 182 183
172 1 183 184
173 1 184 185
174 1 185 186
175 1 186 187
176 1 187 188
177 1 188 189
178 1 189 190
179 1 190 191
180 1 191 192
181 1 193 194
182 1 194 195
183 1 195 196
184 1 196 197
185 1 197 198
186 1 198 199
187 1 199 200