LAMMPS data file for polymer chains

720 atoms
660 bonds

2 atom types
1 bond types

0.0 32.0 xlo xhi
0.0 32.0 ylo yhi
0.0 32.0 zlo zhi

Masses

1 1.0  # Type A
2 1.0  # Type B

Atoms # molecular

1 1 1 0.000 0.000 0.000
2 1 1 0.000 0.000 1.103
3 1 1 0.000 0.000 2.207
4 1 1 0.000 0.000 3.310
5 1 1 0.000 0.000 4.414
6 1 1 0.000 0.000 5.517
7 1 1 0.000 0.000 6.621
8 1 1 0.000 0.000 7.724
9 1 1 0.000 0.000 8.828
10 1 1 0.000 0.000 9.931
11 1 1 0.000 0.000 11.034
12 1 1 0.000 0.000 12.138
13 2 1 5.079 0.000 0.000
14 2 1 5.079 0.000 1.103
15 2 1 5.079 0.000 2.207
16 2 1 5.079 0.000 3.310
17 2 1 5.079 0.000 4.414
18 2 1 5.079 0.000 5.517
19 2 1 5.079 0.000 6.621
20 2 1 5.079 0.000 7.724
21 2 1 5.079 0.000 8.828
22 2 1 5.079 0.000 9.931
23 2 1 5.079 0.000 11.034
24 2 1 5.079 0.000 12.138
25 3 1 10.159 0.000 0.000
26 3 1 10.159 0.000 1.103
27 3 1 10.159 0.000 2.207
28 3 1 10.159 0.000 3.310
29 3 1 10.159 0.000 4.414
30 3 1 10.159 0.000 5.517
31 3 1 10.159 0.000 6.621
32 3 1 10.159 0.000 7.724
33 3 1 10.159 0.000 8.828
34 3 1 10.159 0.000 9.931
35 3 1 10.159 0.000 11.034
36 3 1 10.159 0.000 12.138
37 4 1 15.238 0.000 0.000
38 4 1 15.238 0.000 1.103
39 4 1 15.238 0.000 2.207
40 4 1 15.238 0.000 3.310
41 4 1 15.238 0.000 4.414
42 4 1 15.238 0.000 5.517
43 4 1 15.238 0.000 6.621
44 4 1 15.238 0.000 7.724
45 4 1 15.238 0.000 8.828
46 4 1 15.238 0.000 9.931
47 4 1 15.238 0.000 11.034
48 4 1 15.238 0.000 12.138
49 5 1 20.317 0.000 0.000
50 5 1 20.317 0.000 1.103
51 5 1 20.317 0.000 2.207
52 5 1 20.317 0.000 3.310
53 5 1 20.317 0.000 4.414
54 5 1 20.317 0.000 5.517
55 5 1 20.317 0.000 6.621
56 5 1 20.317 0.000 7.724
57 5 1 20.317 0.000 8.828
58 5 1 20.317 0.000 9.931
59 5 1 20.317 0.000 11.034
60 5 1 20.317 0.000 12.138
61 6 1 25.397 0.000 0.000
62 6 1 25.397 0.000 1.103
63 6 1 25.397 0.000 2.207
64 6 1 25.397 0.000 3.310
65 6 1 25.397 0.000 4.414
66 6 1 25.397 0.000 5.517
67 6 1 25.397 0.000 6.621
68 6 1 25.397 0.000 7.724
69 6 1 25.397 0.000 8.828
70 6 1 25.397 0.000 9.931
71 6 1 25.397 0.000 11.034
72 6 1 25.397 0.000 12.138
73 7 1 0.000 6.038 0.000
74 7 1 0.000 6.038 1.103
75 7 1 0.000 6.038 2.207
76 7 1 0.000 6.038 3.310
77 7 1 0.000 6.038 4.414
78 7 1 0.000 6.038 5.517
79 7 1 0.000 6.038 6.621
80 7 1 0.000 6.038 7.724
81 7 1 0.000 6.038 8.828
82 7 1 0.000 6.038 9.931
83 7 1 0.000 6.038 11.034
84 7 1 0.000 6.038 12.138
85 8 1 5.079 6.038 0.000
86 8 1 5.079 6.038 1.103
87 8 1 5.079 6.038 2.207
88 8 1 5.079 6.038 3.310
89 8 1 5.079 6.038 4.414
90 8 1 5.079 6.038 5.517
91 8 1 5.079 6.038 6.621
92 8 1 5.079 6.038 7.724
93 8 1 5.079 6.038 8.828
94 8 1 5.079 6.038 9.931
95 8 1 5.079 6.038 11.034
96 8 1 5.079 6.038 12.138
97 9 1 10.159 6.038 0.000
98 9 1 10.159 6.038 1.103
99 9 1 10.159 6.038 2.207
100 9 1 10.159 6.038 3.310
101 9 1 10.159 6.038 4.414
102 9 1 10.159 6.038 5.517
103 9 1 10.159 6.038 6.621
104 9 1 10.159 6.038 7.724
105 9 1 10.159 6.038 8.828
106 9 1 10.159 6.038 9.931
107 9 1 10.159 6.038 11.034
108 9 1 10.159 6.038 12.138
109 10 1 15.238 6.038 0.000
110 10 1 15.238 6.038 1.103
111 10 1 15.238 6.038 2.207
112 10 1 15.238 6.038 3.310
113 10 1 15.238 6.038 4.414
114 10 1 15.238 6.038 5.517
115 10 1 15.238 6.038 6.621
116 10 1 15.238 6.038 7.724
117 10 1 15.238 6.038 8.828
118 10 1 15.238 6.038 9.931
119 10 1 15.238 6.038 11.034
120 10 1 15.238 6.038 12.138
121 11 1 20.317 6.038 0.000
122 11 1 20.317 6.038 1.103
123 11 1 20.317 6.038 2.207
124 11 1 20.317 6.038 3.310
125 11 1 20.317 6.038 4.414
126 11 1 20.317 6.038 5.517
127 11 1 20.317 6.038 6.621
128 11 1 20.317 6.038 7.724
129 11 1 20.317 6.038 8.828
130 11 1 20.317 6.038 9.931
131 11 1 20.317 6.038 11.034
132 11 1 20.317 6.038 12.138
133 12 1 25.397 6.038 0.000
134 12 1 25.397 6.038 1.103
135 12 1 25.397 6.038 2.207
136 12 1 25.397 6.038 3.310
137 12 1 25.397 6.038 4.414
138 12 1 25.397 6.038 5.517
139 12 1 25.397 6.038 6.621
140 12 1 25.397 6.038 7.724
141 12 1 25.397 6.038 8.828
142 12 1 25.397 6.038 9.931
143 12 1 25.397 6.038 11.034
144 12 1 25.397 6.038 12.138
145 13 1 0.000 12.075 0.000
146 13 1 0.000 12.075 1.103
147 13 1 0.000 12.075 2.207
148 13 1 0.000 12.075 3.310
149 13 1 0.000 12.075 4.414
150 13 1 0.000 12.075 5.517
151 13 1 0.000 12.075 6.621
152 13 1 0.000 12.075 7.724
153 13 1 0.000 12.075 8.828
154 13 1 0.000 12.075 9.931
155 13 1 0.000 12.075 11.034
156 13 1 0.000 12.075 12.138
157 14 1 5.079 12.075 0.000
158 14 1 5.079 12.075 1.103
159 14 1 5.079 12.075 2.207
160 14 1 5.079 12.075 3.310
161 14 1 5.079 12.075 4.414
162 14 1 5.079 12.075 5.517
163 14 1 5.079 12.075 6.621
164 14 1 5.079 12.075 7.724
165 14 1 5.079 12.075 8.828
166 14 1 5.079 12.075 9.931
167 14 1 5.079 12.075 11.034
168 14 1 5.079 12.075 12.138
169 15 1 10.159 12.075 0.000
170 15 1 10.159 12.075 1.103
171 15 1 10.159 12.075 2.207
172 15 1 10.159 12.075 3.310
173 15 1 10.159 12.075 4.414
174 15 1 10.159 12.075 5.517
175 15 1 10.159 12.075 6.621
176 15 1 10.159 12.075 7.724
177 15 1 10.159 12.075 8.828
178 15 1 10.159 12.075 9.931
179 15 1 10.159 12.075 11.034
180 15 1 10.159 12.075 12.138
181 16 1 15.238 12.075 0.000
182 16 1 15.238 12.075 1.103
183 16 1 15.238 12.075 2.207
184 16 1 15.238 12.075 3.310
185 16 1 15.238 12.075 4.414
186 16 1 15.238 12.075 5.517
187 16 1 15.238 12.075 6.621
188 16 1 15.238 12.075 7.724
189 16 1 15.238 12.075 8.828
190 16 1 15.238 12.075 9.931
191 16 1 15.238 12.075 11.034
192 16 1 15.238 12.075 12.138
193 17 1 20.317 12.075 0.000
194 17 1 20.317 12.075 1.103
195 17 1 20.317 12.075 2.207
196 17 1 20.317 12.075 3.310
197 17 1 20.317 12.075 4.414
198 17 1 20.317 12.075 5.517
199 17 1 20.317 12.075 6.621
200 17 1 20.317 12.075 7.724
201 17 1 20.317 12.075 8.828
202 17 1 20.317 12.075 9.931
203 17 1 20.317 12.075 11.034
204 17 1 20.317 12.075 12.138
205 18 1 25.397 12.075 0.000
206 18 1 25.397 12.075 1.103
207 18 1 25.397 12.075 2.207
208 18 1 25.397 12.075 3.310
209 18 1 25.397 12.075 4.414
210 18 1 25.397 12.075 5.517
211 18 1 25.397 12.075 6.621
212 18 1 25.397 12.075 7.724
213 18 1 25.397 12.075 8.828
214 18 1 25.397 12.075 9.931
215 18 1 25.397 12.075 11.034
216 18 1 25.397 12.075 12.138
217 19 1 0.000 18.113 0.000
218 19 1 0.000 18.113 1.103
219 19 1 0.000 18.113 2.207
220 19 1 0.000 18.113 3.310
221 19 1 0.000 18.113 4.414
222 19 1 0.000 18.113 5.517
223 19 1 0.000 18.113 6.621
224 19 1 0.000 18.113 7.724
225 19 1 0.000 18.113 8.828
226 19 1 0.000 18.113 9.931
227 19 1 0.000 18.113 11.034
228 19 1 0.000 18.113 12.138
229 20 1 5.079 18.113 0.000
230 20 1 5.079 18.113 1.103
231 20 1 5.079 18.113 2.207
232 20 1 5.079 18.113 3.310
233 20 1 5.079 18.113 4.414
234 20 1 5.079 18.113 5.517
235 20 1 5.079 18.113 6.621
236 20 1 5.079 18.113 7.724
237 20 1 5.079 18.113 8.828
238 20 1 5.079 18.113 9.931
239 20 1 5.079 18.113 11.034
240 20 1 5.079 18.113 12.138
241 21 1 10.159 18.113 0.000
242 21 1 10.159 18.113 1.103
243 21 1 10.159 18.113 2.207
244 21 1 10.159 18.113 3.310
245 21 1 10.159 18.113 4.414
246 21 1 10.159 18.113 5.517
247 21 1 10.159 18.113 6.621
248 21 1 10.159 18.113 7.724
249 21 1 10.159 18.113 8.828
250 21 1 10.159 18.113 9.931
251 21 1 10.159 18.113 11.034
252 21 1 10.159 18.113 12.138
253 22 1 15.238 18.113 0.000
254 22 1 15.238 18.113 1.103
255 22 1 15.238 18.113 2.207
256 22 1 15.238 18.113 3.310
257 22 1 15.238 18.113 4.414
258 22 1 15.238 18.113 5.517
259 22 1 15.238 18.113 6.621
260 22 1 15.238 18.113 7.724
261 22 1 15.238 18.113 8.828
262 22 1 15.238 18.113 9.931
263 22 1 15.238 18.113 11.034
264 22 1 15.238 18.113 12.138
265 23 1 20.317 18.113 0.000
266 23 1 20.317 18.113 1.103
267 23 1 20.317 18.113 2.207
268 23 1 20.317 18.113 3.310
269 23 1 20.317 18.113 4.414
270 23 1 20.317 18.113 5.517
271 23 1 20.317 18.113 6.621
272 23 1 20.317 18.113 7.724
273 23 1 20.317 18.113 8.828
274 23 1 20.317 18.113 9.931
275 23 1 20.317 18.113 11.034
276 23 1 20.317 18.113 12.138
277 24 1 25.397 18.113 0.000
278 24 1 25.397 18.113 1.103
279 24 1 25.397 18.113 2.207
280 24 1 25.397 18.113 3.310
281 24 1 25.397 18.113 4.414
282 24 1 25.397 18.113 5.517
283 24 1 25.397 18.113 6.621
284 24 1 25.397 18.113 7.724
285 24 1 25.397 18.113 8.828
286 24 1 25.397 18.113 9.931
287 24 1 25.397 18.113 11.034
288 24 1 25.397 18.113 12.138
289 25 1 0.000 24.151 0.000
290 25 1 0.000 24.151 1.103
291 25 1 0.000 24.151 2.207
292 25 1 0.000 24.151 3.310
293 25 1 0.000 24.151 4.414
294 25 1 0.000 24.151 5.517
295 25 1 0.000 24.151 6.621
296 25 1 0.000 24.151 7.724
297 25 1 0.000 24.151 8.828
298 25 1 0.000 24.151 9.931
299 25 1 0.000 24.151 11.034
300 25 1 0.000 24.151 12.138
301 26 1 5.079 24.151 0.000
302 26 1 5.079 24.151 1.103
303 26 1 5.079 24.151 2.207
304 26 1 5.079 24.151 3.310
305 26 1 5.079 24.151 4.414
306 26 1 5.079 24.151 5.517
307 26 1 5.079 24.151 6.621
308 26 1 5.079 24.151 7.724
309 26 1 5.079 24.151 8.828
310 26 1 5.079 24.151 9.931
311 26 1 5.079 24.151 11.034
312 26 1 5.079 24.151 12.138
313 27 1 10.159 24.151 0.000
314 27 1 10.159 24.151 1.103
315 27 1 10.159 24.151 2.207
316 27 1 10.159 24.151 3.310
317 27 1 10.159 24.151 4.414
318 27 1 10.159 24.151 5.517
319 27 1 10.159 24.151 6.621
320 27 1 10.159 24.151 7.724
321 27 1 10.159 24.151 8.828
322 27 1 10.159 24.151 9.931
323 27 1 10.159 24.151 11.034
324 27 1 10.159 24.151 12.138
325 28 1 15.238 24.151 0.000
326 28 1 15.238 24.151 1.103
327 28 1 15.238 24.151 2.207
328 28 1 15.238 24.151 3.310
329 28 1 15.238 24.151 4.414
330 28 1 15.238 24.151 5.517
331 28 1 15.238 24.151 6.621
332 28 1 15.238 24.151 7.724
333 28 1 15.238 24.151 8.828
334 28 1 15.238 24.151 9.931
335 28 1 15.238 24.151 11.034
336 28 1 15.238 24.151 12.138
337 29 1 20.317 24.151 0.000
338 29 1 20.317 24.151 1.103
339 29 1 20.317 24.151 2.207
340 29 1 20.317 24.151 3.310
341 29 1 20.317 24.151 4.414
342 29 1 20.317 24.151 5.517
343 29 1 20.317 24.151 6.621
344 29 1 20.317 24.151 7.724
345 29 1 20.317 24.151 8.828
346 29 1 20.317 24.151 9.931
347 29 1 20.317 24.151 11.034
348 29 1 20.317 24.151 12.138
349 30 1 25.397 24.151 0.000
350 30 1 25.397 24.151 1.103
351 30 1 25.397 24.151 2.207
352 30 1 25.397 24.151 3.310
353 30 1 25.397 24.151 4.414
354 30 1 25.397 24.151 5.517
355 30 1 25.397 24.151 6.621
356 30 1 25.397 24.151 7.724
357 30 1 25.397 24.151 8.828
358 30 1 25.397 24.151 9.931
359 30 1 25.397 24.151 11.034
360 30 1 25.397 24.151 12.138
361 31 2 2.540 3.019 17.655
362 31 2 2.540 3.019 18.759
363 31 2 2.540 3.019 19.862
364 31 2 2.540 3.019 20.966
365 31 2 2.540 3.019 22.069
366 31 2 2.540 3.019 23.172
367 31 2 2.540 3.019 24.276
368 31 2 2.540 3.019 25.379
369 31 2 2.540 3.019 26.483
370 31 2 2.540 3.019 27.586
371 31 2 2.540 3.019 28.690
372 31 2 2.540 3.019 29.793
373 32 2 7.619 3.019 17.655
374 32 2 7.619 3.019 18.759
375 32 2 7.619 3.019 19.862
376 32 2 7.619 3.019 20.966
377 32 2 7.619 3.019 22.069
378 32 2 7.619 3.019 23.172
379 32 2 7.619 3.019 24.276
380 32 2 7.619 3.019 25.379
381 32 2 7.619 3.019 26.483
382 32 2 7.619 3.019 27.586
383 32 2 7.619 3.019 28.690
384 32 2 7.619 3.019 29.793
385 33 2 12.698 3.019 17.655
386 33 2 12.698 3.019 18.759
387 33 2 12.698 3.019 19.862
388 33 2 12.698 3.019 20.966
389 33 2 12.698 3.019 22.069
390 33 2 12.698 3.019 23.172
391 33 2 12.698 3.019 24.276
392 33 2 12.698 3.019 25.379
393 33 2 12.698 3.019 26.483
394 33 2 12.698 3.019 27.586
395 33 2 12.698 3.019 28.690
396 33 2 12.698 3.019 29.793
397 34 2 17.778 3.019 17.655
398 34 2 17.778 3.019 18.759
399 34 2 17.778 3.019 19.862
400 34 2 17.778 3.019 20.966
401 34 2 17.778 3.019 22.069
402 34 2 17.778 3.019 23.172
403 34 2 17.778 3.019 24.276
404 34 2 17.778 3.019 25.379
405 34 2 17.778 3.019 26.483
406 34 2 17.778 3.019 27.586
407 34 2 17.778 3.019 28.690
408 34 2 17.778 3.019 29.793
409 35 2 22.857 3.019 17.655
410 35 2 22.857 3.019 18.759
411 35 2 22.857 3.019 19.862
412 35 2 22.857 3.019 20.966
413 35 2 22.857 3.019 22.069
414 35 2 22.857 3.019 23.172
415 35 2 22.857 3.019 24.276
416 35 2 22.857 3.019 25.379
417 35 2 22.857 3.019 26.483
418 35 2 22.857 3.019 27.586
419 35 2 22.857 3.019 28.690
420 35 2 22.857 3.019 29.793
421 36 2 27.937 3.019 17.655
422 36 2 27.937 3.019 18.759
423 36 2 27.937 3.019 19.862
424 36 2 27.937 3.019 20.966
425 36 2 27.937 3.019 22.069
426 36 2 27.937 3.019 23.172
427 36 2 27.937 3.019 24.276
428 36 2 27.937 3.019 25.379
429 36 2 27.937 3.019 26.483
430 36 2 27.937 3.019 27.586
431 36 2 27.937 3.019 28.690
432 36 2 27.937 3.019 29.793
433 37 2 2.540 9.057 17.655
434 37 2 2.540 9.057 18.759
435 37 2 2.540 9.057 19.862
436 37 2 2.540 9.057 20.966
437 37 2 2.540 9.057 22.069
438 37 2 2.540 9.057 23.172
439 37 2 2.540 9.057 24.276
440 37 2 2.540 9.057 25.379
441 37 2 2.540 9.057 26.483
442 37 2 2.540 9.057 27.586
443 37 2 2.540 9.057 28.690
444 37 2 2.540 9.057 29.793
445 38 2 7.619 9.057 17.655
446 38 2 7.619 9.057 18.759
447 38 2 7.619 9.057 19.862
448 38 2 7.619 9.057 20.966
449 38 2 7.619 9.057 22.069
450 38 2 7.619 9.057 23.172
451 38 2 7.619 9.057 24.276
452 38 2 7.619 9.057 25.379
453 38 2 7.619 9.057 26.483
454 38 2 7.619 9.057 27.586
455 38 2 7.619 9.057 28.690
456 38 2 7.619 9.057 29.793
457 39 2 12.698 9.057 17.655
458 39 2 12.698 9.057 18.759
459 39 2 12.698 9.057 19.862
460 39 2 12.698 9.057 20.966
461 39 2 12.698 9.057 22.069
462 39 2 12.698 9.057 23.172
463 39 2 12.698 9.057 24.276
464 39 2 12.698 9.057 25.379
465 39 2 12.698 9.057 26.483
466 39 2 12.698 9.057 27.586
467 39 2 12.698 9.057 28.690
468 39 2 12.698 9.057 29.793
469 40 2 17.778 9.057 17.655
470 40 2 17.778 9.057 18.759
471 40 2 17.778 9.057 19.862
472 40 2 17.778 9.057 20.966
473 40 2 17.778 9.057 22.069
474 40 2 17.778 9.057 23.172
475 40 2 17.778 9.057 24.276
476 40 2 17.778 9.057 25.379
477 40 2 17.778 9.057 26.483
478 40 2 17.778 9.057 27.586
479 40 2 17.778 9.057 28.690
480 40 2 17.778 9.057 29.793
481 41 2 22.857 9.057 17.655
482 41 2 22.857 9.057 18.759
483 41 2 22.857 9.057 19.862
484 41 2 22.857 9.057 20.966
485 41 2 22.857 9.057 22.069
486 41 2 22.857 9.057 23.172
487 41 2 22.857 9.057 24.276
488 41 2 22.857 9.057 25.379
489 41 2 22.857 9.057 26.483
490 41 2 22.857 9.057 27.586
491 41 2 22.857 9.057 28.690
492 41 2 22.857 9.057 29.793
493 42 2 27.937 9.057 17.655
494 42 2 27.937 9.057 18.759
495 42 2 27.937 9.057 19.862
496 42 2 27.937 9.057 20.966
497 42 2 27.937 9.057 22.069
498 42 2 27.937 9.057 23.172
499 42 2 27.937 9.057 24.276
500 42 2 27.937 9.057 25.379
501 42 2 27.937 9.057 26.483
502 42 2 27.937 9.057 27.586
503 42 2 27.937 9.057 28.690
504 42 2 27.937 9.057 29.793
505 43 2 2.540 15.094 17.655
506 43 2 2.540 15.094 18.759
507 43 2 2.540 15.094 19.862
508 43 2 2.540 15.094 20.966
509 43 2 2.540 15.094 22.069
510 43 2 2.540 15.094 23.172
511 43 2 2.540 15.094 24.276
512 43 2 2.540 15.094 25.379
513 43 2 2.540 15.094 26.483
514 43 2 2.540 15.094 27.586
515 43 2 2.540 15.094 28.690
516 43 2 2.540 15.094 29.793
517 44 2 7.619 15.094 17.655
518 44 2 7.619 15.094 18.759
519 44 2 7.619 15.094 19.862
520 44 2 7.619 15.094 20.966
521 44 2 7.619 15.094 22.069
522 44 2 7.619 15.094 23.172
523 44 2 7.619 15.094 24.276
524 44 2 7.619 15.094 25.379
525 44 2 7.619 15.094 26.483
526 44 2 7.619 15.094 27.586
527 44 2 7.619 15.094 28.690
528 44 2 7.619 15.094 29.793
529 45 2 12.698 15.094 17.655
530 45 2 12.698 15.094 18.759
531 45 2 12.698 15.094 19.862
532 45 2 12.698 15.094 20.966
533 45 2 12.698 15.094 22.069
534 45 2 12.698 15.094 23.172
535 45 2 12.698 15.094 24.276
536 45 2 12.698 15.094 25.379
537 45 2 12.698 15.094 26.483
538 45 2 12.698 15.094 27.586
539 45 2 12.698 15.094 28.690
540 45 2 12.698 15.094 29.793
541 46 2 17.778 15.094 17.655
542 46 2 17.778 15.094 18.759
543 46 2 17.778 15.094 19.862
544 46 2 17.778 15.094 20.966
545 46 2 17.778 15.094 22.069
546 46 2 17.778 15.094 23.172
547 46 2 17.778 15.094 24.276
548 46 2 17.778 15.094 25.379
549 46 2 17.778 15.094 26.483
550 46 2 17.778 15.094 27.586
551 46 2 17.778 15.094 28.690
552 46 2 17.778 15.094 29.793
553 47 2 22.857 15.094 17.655
554 47 2 22.857 15.094 18.759
555 47 2 22.857 15.094 19.862
556 47 2 22.857 15.094 20.966
557 47 2 22.857 15.094 22.069
558 47 2 22.857 15.094 23.172
559 47 2 22.857 15.094 24.276
560 47 2 22.857 15.094 25.379
561 47 2 22.857 15.094 26.483
562 47 2 22.857 15.094 27.586
563 47 2 22.857 15.094 28.690
564 47 2 22.857 15.094 29.793
565 48 2 27.937 15.094 17.655
566 48 2 27.937 15.094 18.759
567 48 2 27.937 15.094 19.862
568 48 2 27.937 15.094 20.966
569 48 2 27.937 15.094 22.069
570 48 2 27.937 15.094 23.172
571 48 2 27.937 15.094 24.276
572 48 2 27.937 15.094 25.379
573 48 2 27.937 15.094 26.483
574 48 2 27.937 15.094 27.586
575 48 2 27.937 15.094 28.690
576 48 2 27.937 15.094 29.793
577 49 2 2.540 21.132 17.655
578 49 2 2.540 21.132 18.759
579 49 2 2.540 21.132 19.862
580 49 2 2.540 21.132 20.966
581 49 2 2.540 21.132 22.069
582 49 2 2.540 21.132 23.172
583 49 2 2.540 21.132 24.276
584 49 2 2.540 21.132 25.379
585 49 2 2.540 21.132 26.483
586 49 2 2.540 21.132 27.586
587 49 2 2.540 21.132 28.690
588 49 2 2.540 21.132 29.793
589 50 2 7.619 21.132 17.655
590 50 2 7.619 21.132 18.759
591 50 2 7.619 21.132 19.862
592 50 2 7.619 21.132 20.966
593 50 2 7.619 21.132 22.069
594 50 2 7.619 21.132 23.172
595 50 2 7.619 21.132 24.276
596 50 2 7.619 21.132 25.379
597 50 2 7.619 21.132 26.483
598 50 2 7.619 21.132 27.586
599 50 2 7.619 21.132 28.690
600 50 2 7.619 21.132 29.793
601 51 2 12.698 21.132 17.655
602 51 2 12.698 21.132 18.759
603 51 2 12.698 21.132 19.862
604 51 2 12.698 21.132 20.966
605 51 2 12.698 21.132 22.069
606 51 2 12.698 21.132 23.172
607 51 2 12.698 21.132 24.276
608 51 2 12.698 21.132 25.379
609 51 2 12.698 21.132 26.483
610 51 2 12.698 21.132 27.586
611 51 2 12.698 21.132 28.690
612 51 2 12.698 21.132 29.793
613 52 2 17.778 21.132 17.655
614 52 2 17.778 21.132 18.759
615 52 2 17.778 21.132 19.862
616 52 2 17.778 21.132 20.966
617 52 2 17.778 21.132 22.069
618 52 2 17.778 21.132 23.172
619 52 2 17.778 21.132 24.276
620 52 2 17.778 21.132 25.379
621 52 2 17.778 21.132 26.483
622 52 2 17.778 21.132 27.586
623 52 2 17.778 21.132 28.690
624 52 2 17.778 21.132 29.793
625 53 2 22.857 21.132 17.655
626 53 2 22.857 21.132 18.759
627 53 2 22.857 21.132 19.862
628 53 2 22.857 21.132 20.966
629 53 2 22.857 21.132 22.069
630 53 2 22.857 21.132 23.172
631 53 2 22.857 21.132 24.276
632 53 2 22.857 21.132 25.379
633 53 2 22.857 21.132 26.483
634 53 2 22.857 21.132 27.586
635 53 2 22.857 21.132 28.690
636 53 2 22.857 21.132 29.793
637 54 2 27.937 21.132 17.655
638 54 2 27.937 21.132 18.759
639 54 2 27.937 21.132 19.862
640 54 2 27.937 21.132 20.966
641 54 2 27.937 21.132 22.069
642 54 2 27.937 21.132 23.172
643 54 2 27.937 21.132 24.276
644 54 2 27.937 21.132 25.379
645 54 2 27.937 21.132 26.483
646 54 2 27.937 21.132 27.586
647 54 2 27.937 21.132 28.690
648 54 2 27.937 21.132 29.793
649 55 2 2.540 27.170 17.655
650 55 2 2.540 27.170 18.759
651 55 2 2.540 27.170 19.862
652 55 2 2.540 27.170 20.966
653 55 2 2.540 27.170 22.069
654 55 2 2.540 27.170 23.172
655 55 2 2.540 27.170 24.276
656 55 2 2.540 27.170 25.379
657 55 2 2.540 27.170 26.483
658 55 2 2.540 27.170 27.586
659 55 2 2.540 27.170 28.690
660 55 2 2.540 27.170 29.793
661 56 2 7.619 27.170 17.655
662 56 2 7.619 27.170 18.759
663 56 2 7.619 27.170 19.862
664 56 2 7.619 27.170 20.966
665 56 2 7.619 27.170 22.069
666 56 2 7.619 27.170 23.172
667 56 2 7.619 27.170 24.276
668 56 2 7.619 27.170 25.379
669 56 2 7.619 27.170 26.483
670 56 2 7.619 27.170 27.586
671 56 2 7.619 27.170 28.690
672 56 2 7.619 27.170 29.793
673 57 2 12.698 27.170 17.655
674 57 2 12.698 27.170 18.759
675 57 2 12.698 27.170 19.862
676 57 2 12.698 27.170 20.966
677 57 2 12.698 27.170 22.069
678 57 2 12.698 27.170 23.172
679 57 2 12.698 27.170 24.276
680 57 2 12.698 27.170 25.379
681 57 2 12.698 27.170 26.483
682 57 2 12.698 27.170 27.586
683 57 2 12.698 27.170 28.690
684 57 2 12.698 27.170 29.793
685 58 2 17.778 27.170 17.655
686 58 2 17.778 27.170 18.759
687 58 2 17.778 27.170 19.862
688 58 2 17.778 27.170 20.966
689 58 2 17.778 27.170 22.069
690 58 2 17.778 27.170 23.172
691 58 2 17.778 27.170 24.276
692 58 2 17.778 27.170 25.379
693 58 2 17.778 27.170 26.483
694 58 2 17.778 27.170 27.586
695 58 2 17.778 27.170 28.690
696 58 2 17.778 27.170 29.793
697 59 2 22.857 27.170 17.655
698 59 2 22.857 27.170 18.759
699 59 2 22.857 27.170 19.862
700 59 2 22.857 27.170 20.966
701 59 2 22.857 27.170 22.069
702 59 2 22.857 27.170 23.172
703 59 2 22.857 27.170 24.276
704 59 2 22.857 27.170 25.379
705 59 2 22.857 27.170 26.483
706 59 2 22.857 27.170 27.586
707 59 2 22.857 27.170 28.690
708 59 2 22.857 27.170 29.793
709 60 2 27.937 27.170 17.655
710 60 2 27.937 27.170 18.759
711 60 2 27.937 27.170 19.862
712 60 2 27.937 27.170 20.966
713 60 2 27.937 27.170 22.069
714 60 2 27.937 27.170 23.172
715 60 2 27.937 27.170 24.276
716 60 2 27.937 27.170 25.379
717 60 2 27.937 27.170 26.483
718 60 2 27.937 27.170 27.586
719 60 2 27.937 27.170 28.690
720 60 2 27.937 27.170 29.793

Bonds

1 1 1 2
2 1 2 3
3 1 3 4
4 1 4 5
5 1 5 6
6 1 6 7
7 1 7 8
8 1 8 9
9 1 9 10
10 1 10 11
11 1 11 12
12 1 13 14
13 1 14 15
14 1 15 16
15 1 16 17
16 1 17 18
17 1 18 19
18 1 19 20
19 1 20 21
20 1 21 22
21 1 22 23
22 1 23 24
23 1 25 26
24 1 26 27
25 1 27 28
26 1 28 29
27 1 29 30
28 1 30 31
29 1 31 32
30 1 32 33
31 1 33 34
32 1 34 35
33 1 35 36
34 1 37 38
35 1 38 39
36 1 39 40
37 1 40 41
38 1 41 42
39 1 42 43
40 1 43 44
41 1 44 45
42 1 45 46
43 1 46 47
44 1 47 48
45 1 49 50
46 1 50 51
47 1 51 52
48 1 52 53
49 1 53 54
50 1 54 55
51 1 55 56
52 1 56 57
53 1 57 58
54 1 58 59
55 1 59 60
56 1 61 62
57 1 62 63
58 1 63 64
59 1 64 65
60 1 65 66
61 1 66 67
62 1 67 68
63 1 68 69
64 1 69 70
65 1 70 71
66 1 71 72
67 1 73 74
68 1 74 75
69 1 75 76
70 1 76 77
71 1 77 78
72 1 78 79
73 1 79 80
74 1 80 81
75 1 81 82
76 1 82 83
77 1 83 84
78 1 85 86
79 1 86 87
80 1 87 88
81 1 88 89
82 1 89 90
83 1 90 91
84 1 91 92
85 1 92 93
86 1 93 94
87 1 94 95
88 1 95 96
89 1 97 98
90 1 98 99
91 1 99 100
92 1 100 101
93 1 101 102
94 1 102 103
95 1 103 104
96 1 104 105
97 1 105 106
98 1 106 107
99 1 107 108
100 1 109 110
101 1 110 111
102 1 111 112
103 1 112 113
104 1 113 114
105 1 114 115
106 1 115 116
107 1 116 117
108 1 117 118
109 1 118 119
110 1 119 120
111 1 121 122
112 1 122 123
113 1 123 124
114 1 124 125
115 1 125 126
116 1 126 127
117 1 127 128
118 1 128 129
119 1 129 130
120 1 130 131
121 1 131 132
122 1 133 134
123 1 134 135
124 1 135 136
125 1 136 137
126 1 137 138
127 1 138 139
128 1 139 140
129 1 140 141
130 1 141 142
131 1 142 143
132 1 143 144
133 1 145 146
134 1 146 147
135 1 147 148
136 1 148 149
137 1 149 150
138 1 150 151
139 1 151 152
140 1 152 153
141 1 153 154
142 1 154 155
143 1 155 156
144 1 157 158
145 1 158 159
146 1 159 160
147 1 160 161
148 1 161 162
149 1 162 163
150 1 163 164
151 1 164 165
152 1 165 166
153 1 166 167
154 1 167 168
155 1 169 170
156 1 170 171
157 1 171 172
158 1 172 173
159 1 173 174
160 1 174 175
161 1 175 176
162 1 176 177
163 1 177 178
164 1 178 179
165 1 179 180
166 1 181 182
167 1 182 183
168 1 183 184
169 1 184 185
170 1 185 186
171 1 186 187
172 1 187 188
173 1 188 189
174 1 189 190
175 1 190 191
176 1 191 192
177 1 193 194
178 1 194 195
179 1 195 196
180 1 196 197
181 1 197 198
182 1 198 199
183 1 199 200
184 1 200 201
185 1 201 202
186 1 202 203
187 1 203 204
188 1 205 206
189 1 206 207
190 1 207 208
191 1 208 209
192 1 209 210
193 1 210 211
194 1 211 212
195 1 212 213
196 1 213 214
197 1 214 215
198 1 215 216
199 1 217 218
200 1 218 219
201 1 219 220
202 1 220 221
203 1 221 222
204 1 222 223
205 1 223 224
206 1 224 225
207 1 225 226
208 1 226 227
209 1 227 228
210 1 229 230
211 1 230 231
212 1 231 232
213 1 232 233
214 1 233 234
215 1 234 235
216 1 235 236
217 1 236 237
218 1 237 238
219 1 238 239
220 1 239 240
221 1 241 242
222 1 242 243
223 1 243 244
224 1 244 245
225 1 245 246
226 1 246 247
227 1 247 248
228 1 248 249
229 1 249 250
230 1 250 251
231 1 251 252
232 1 253 254
233 1 254 255
234 1 255 256
235 1 256 257
236 1 257 258
237 1 258 259
238 1 259 260
239 1 260 261
240 1 261 262
241 1 262 263
242 1 263 264
243 1 265 266
244 1 266 267
245 1 267 268
246 1 268 269
247 1 269 270
248 1 270 271
249 1 271 272
250 1 272 273
251 1 273 274
252 1 274 275
253 1 275 276
254 1 277 278
255 1 278 279
256 1 279 280
257 1 280 281
258 1 281 282
259 1 282 283
260 1 283 284
261 1 284 285
262 1 285 286
263 1 286 287
264 1 287 288
265 1 289 290
266 1 290 291
267 1 291 292
268 1 292 293
269 1 293 294
270 1 294 295
271 1 295 296
272 1 296 297
273 1 297 298
274 1 298 299
275 1 299 300
276 1 301 302
277 1 302 303
278 1 303 304
279 1 304 305
280 1 305 306
281 1 306 307
282 1 307 308
283 1 308 309
284 1 309 310
285 1 310 311
286 1 311 312
287 1 313 314
288 1 314 315
289 1 315 316
290 1 316 317
291 1 317 318
292 1 318 319
293 1 319 320
294 1 320 321
295 1 321 322
296 1 322 323
297 1 323 324
298 1 325 326
299 1 326 327
300 1 327 328
301 1 328 329
302 1 329 330
303 1 330 331
304 1 331 332
305 1 332 333
306 1 333 334
307 1 334 335
308 1 335 336
309 1 337 338
310 1 338 339
311 1 339 340
312 1 340 341
313 1 341 342
314 1 342 343
315 1 343 344
316 1 344 345
317 1 345 346
318 1 346 347
319 1 347 348
320 1 349 350
321 1 350 351
322 1 351 352
323 1 352 353
324 1 353 354
325 1 354 355
326 1 355 356
327 1 356 357
328 1 357 358
329 1 358 359
330 1 359 360
331 1 361 362
332 1 362 363
333 1 363 364
334 1 364 365
335 1 365 366
336 1 366 367
337 1 367 368
338 1 368 369
339 1 369 370
340 1 370 371
341 1 371 372
342 1 373 374
343 1 374 375
344 1 375 376
345 1 376 377
346 1 377 378
347 1 378 379
348 1 379 380
349 1 380 381
350 1 381 382
351 1 382 383
352 1 383 384
353 1 385 386
354 1 386 387
355 1 387 388
356 1 388 389
357 1 389 390
358 1 390 391
359 1 391 392
360 1 392 393
361 1 393 394
362 1 394 395
363 1 395 396
364 1 397 398
365 1 398 399
366 1 399 400
367 1 400 401
368 1 401 402
369 1 402 403
370 1 403 404
371 1 404 405
372 1 405 406
373 1 406 407
374 1 407 408
375 1 409 410
376 1 410 411
377 1 411 412
378 1 412 413
379 1 413 414
380 1 414 415
381 1 415 416
382 1 416 417
383 1 417 418
384 1 418 419
385 1 419 420
386 1 421 422
387 1 422 423
388 1 423 424
389 1 424 425
390 1 425 426
391 1 426 427
392 1 427 428
393 1 428 429
394 1 429 430
395 1 430 431
396 1 431 432
397 1 433 434
398 1 434 435
399 1 435 436
400 1 436 437
401 1 437 438
402 1 438 439
403 1 439 440
404 1 440 441
405 1 441 442
406 1 442 443
407 1 443 444
408 1 445 446
409 1 446 447
410 1 447 448
411 1 448 449
412 1 449 450
413 1 450 451
414 1 451 452
415 1 452 453
416 1 453 454
417 1 454 455
418 1 455 456
419 1 457 458
420 1 458 459
421 1 459 460
422 1 460 461
423 1 461 462
424 1 462 463
425 1 463 464
426 1 464 465
427 1 465 466
428 1 466 467
429 1 467 468
430 1 469 470
431 1 470 471
432 1 471 472
433 1 472 473
434 1 473 474
435 1 474 475
436 1 475 476
437 1 476 477
438 1 477 478
439 1 478 479
440 1 479 480
441 1 481 482
442 1 482 483
443 1 483 484
444 1 484 485
445 1 485 486
446 1 486 487
447 1 487 488
448 1 488 489
449 1 489 490
450 1 490 491
451 1 491 492
452 1 493 494
453 1 494 495
454 1 495 496
455 1 496 497
456 1 497 498
457 1 498 499
458 1 499 500
459 1 500 501
460 1 501 502
461 1 502 503
462 1 503 504
463 1 505 506
464 1 506 507
465 1 507 508
466 1 508 509
467 1 509 510
468 1 510 511
469 1 511 512
470 1 512 513
471 1 513 514
472 1 514 515
473 1 515 516
474 1 517 518
475 1 518 519
476 1 519 520
477 1 520 521
478 1 521 522
479 1 522 523
480 1 523 524
481 1 524 525
482 1 525 526
483 1 526 527
484 1 527 528
485 1 529 530
486 1 530 531
487 1 531 532
488 1 532 533
489 1 533 534
490 1 534 535
491 1 535 536
492 1 536 537
493 1 537 538
494 1 538 539
495 1 539 540
496 1 541 542
497 1 542 543
498 1 543 544
499 1 544 545
500 1 545 546
501 1 546 547
502 1 547 548
503 1 548 549
504 1 549 550
505 1 550 551
506 1 551 552
507 1 553 554
508 1 554 555
509 1 555 556
510 1 556 557
511 1 557 558
512 1 558 559
513 1 559 560
514 1 560 561
515 1 561 562
516 1 562 563
517 1 563 564
518 1 565 566
519 1 566 567
520 1 567 568
521 1 568 569
522 1 569 570
523 1 570 571
524 1 571 572
525 1 572 573
526 1 573 574
527 1 574 575
528 1 575 576
529 1 577 578
530 1 578 579
531 1 579 580
532 1 580 581
533 1 581 582
534 1 582 583
535 1 583 584
536 1 584 585
537 1 585 586
538 1 586 587
539 1 587 588
540 1 589 590
541 1 590 591
542 1 591 592
543 1 592 593
544 1 593 594
545 1 594 595
546 1 595 596
547 1 596 597
548 1 597 598
549 1 598 599
550 1 599 600
551 1 601 602
552 1 602 603
553 1 603 604
554 1 604 605
555 1 605 606
556 1 606 607
557 1 607 608
558 1 608 609
559 1 609 610
560 1 610 611
561 1 611 612
562 1 613 614
563 1 614 615
564 1 615 616
565 1 616 617
566 1 617 618
567 1 618 619
568 1 619 620
569 1 620 621
570 1 621 622
571 1 622 623
572 1 623 624
573 1 625 626
574 1 626 627
575 1 627 628
576 1 628 629
577 1 629 630
578 1 630 631
579 1 631 632
580 1 632 633
581 1 633 634
582 1 634 635
583 1 635 636
584 1 637 638
585 1 638 639
586 1 639 640
587 1 640 641
588 1 641 642
589 1 642 643
590 1 643 644
591 1 644 645
592 1 645 646
593 1 646 647
594 1 647 648
595 1 649 650
596 1 650 651
597 1 651 652
598 1 652 653
599 1 653 654
600 1 654 655
601 1 655 656
602 1 656 657
603 1 657 658
604 1 658 659
605 1 659 660
606 1 661 662
607 1 662 663
608 1 663 664
609 1 664 665
610 1 665 666
611 1 666 667
612 1 667 668
613 1 668 669
614 1 669 670
615 1 670 671
616 1 671 672
617 1 673 674
618 1 674 675
619 1 675 676
620 1 676 677
621 1 677 678
622 1 678 679
623 1 679 680
624 1 680 681
625 1 681 682
626 1 682 683
627 1 683 684
628 1 685 686
629 1 686 687
630 1 687 688
631 1 688 689
632 1 689 690
633 1 690 691
634 1 691 692
635 1 692 693
636 1 693 694
637 1 694 695
638 1 695 696
639 1 697 698
640 1 698 699
641 1 699 700
642 1 700 701
643 1 701 702
644 1 702 703
645 1 703 704
646 1 704 705
647 1 705 706
648 1 706 707
649 1 707 708
650 1 709 710
651 1 710 711
652 1 711 712
653 1 712 713
654 1 713 714
655 1 714 715
656 1 715 716
657 1 716 717
658 1 717 718
659 1 718 719
660 1 719 720
