LAMMPS data file for polymer chains

1560 atoms
1500 bonds

2 atom types
1 bond types

0.0 32.0 xlo xhi
0.0 32.0 ylo yhi
0.0 32.0 zlo zhi

Masses

1 1.0  # Type A
2 1.0  # Type B

Atoms # molecular

1 1 1 0.000 0.000 0.000
2 1 1 0.000 0.000 0.561
3 1 1 0.000 0.000 1.123
4 1 1 0.000 0.000 1.684
5 1 1 0.000 0.000 2.246
6 1 1 0.000 0.000 2.807
7 1 1 0.000 0.000 3.368
8 1 1 0.000 0.000 3.930
9 1 1 0.000 0.000 4.491
10 1 1 0.000 0.000 5.053
11 1 1 0.000 0.000 5.614
12 1 1 0.000 0.000 6.175
13 1 1 0.000 0.000 6.737
14 1 1 0.000 0.000 7.298
15 1 1 0.000 0.000 7.860
16 1 1 0.000 0.000 8.421
17 1 1 0.000 0.000 8.982
18 1 1 0.000 0.000 9.544
19 1 1 0.000 0.000 10.105
20 1 1 0.000 0.000 10.667
21 1 1 0.000 0.000 11.228
22 1 1 0.000 0.000 11.789
23 1 1 0.000 0.000 12.351
24 1 1 0.000 0.000 12.912
25 1 1 0.000 0.000 13.474
26 1 1 0.000 0.000 14.035
27 2 1 5.079 0.000 0.000
28 2 1 5.079 0.000 0.561
29 2 1 5.079 0.000 1.123
30 2 1 5.079 0.000 1.684
31 2 1 5.079 0.000 2.246
32 2 1 5.079 0.000 2.807
33 2 1 5.079 0.000 3.368
34 2 1 5.079 0.000 3.930
35 2 1 5.079 0.000 4.491
36 2 1 5.079 0.000 5.053
37 2 1 5.079 0.000 5.614
38 2 1 5.079 0.000 6.175
39 2 1 5.079 0.000 6.737
40 2 1 5.079 0.000 7.298
41 2 1 5.079 0.000 7.860
42 2 1 5.079 0.000 8.421
43 2 1 5.079 0.000 8.982
44 2 1 5.079 0.000 9.544
45 2 1 5.079 0.000 10.105
46 2 1 5.079 0.000 10.667
47 2 1 5.079 0.000 11.228
48 2 1 5.079 0.000 11.789
49 2 1 5.079 0.000 12.351
50 2 1 5.079 0.000 12.912
51 2 1 5.079 0.000 13.474
52 2 1 5.079 0.000 14.035
53 3 1 10.159 0.000 0.000
54 3 1 10.159 0.000 0.561
55 3 1 10.159 0.000 1.123
56 3 1 10.159 0.000 1.684
57 3 1 10.159 0.000 2.246
58 3 1 10.159 0.000 2.807
59 3 1 10.159 0.000 3.368
60 3 1 10.159 0.000 3.930
61 3 1 10.159 0.000 4.491
62 3 1 10.159 0.000 5.053
63 3 1 10.159 0.000 5.614
64 3 1 10.159 0.000 6.175
65 3 1 10.159 0.000 6.737
66 3 1 10.159 0.000 7.298
67 3 1 10.159 0.000 7.860
68 3 1 10.159 0.000 8.421
69 3 1 10.159 0.000 8.982
70 3 1 10.159 0.000 9.544
71 3 1 10.159 0.000 10.105
72 3 1 10.159 0.000 10.667
73 3 1 10.159 0.000 11.228
74 3 1 10.159 0.000 11.789
75 3 1 10.159 0.000 12.351
76 3 1 10.159 0.000 12.912
77 3 1 10.159 0.000 13.474
78 3 1 10.159 0.000 14.035
79 4 1 15.238 0.000 0.000
80 4 1 15.238 0.000 0.561
81 4 1 15.238 0.000 1.123
82 4 1 15.238 0.000 1.684
83 4 1 15.238 0.000 2.246
84 4 1 15.238 0.000 2.807
85 4 1 15.238 0.000 3.368
86 4 1 15.238 0.000 3.930
87 4 1 15.238 0.000 4.491
88 4 1 15.238 0.000 5.053
89 4 1 15.238 0.000 5.614
90 4 1 15.238 0.000 6.175
91 4 1 15.238 0.000 6.737
92 4 1 15.238 0.000 7.298
93 4 1 15.238 0.000 7.860
94 4 1 15.238 0.000 8.421
95 4 1 15.238 0.000 8.982
96 4 1 15.238 0.000 9.544
97 4 1 15.238 0.000 10.105
98 4 1 15.238 0.000 10.667
99 4 1 15.238 0.000 11.228
100 4 1 15.238 0.000 11.789
101 4 1 15.238 0.000 12.351
102 4 1 15.238 0.000 12.912
103 4 1 15.238 0.000 13.474
104 4 1 15.238 0.000 14.035
105 5 1 20.317 0.000 0.000
106 5 1 20.317 0.000 0.561
107 5 1 20.317 0.000 1.123
108 5 1 20.317 0.000 1.684
109 5 1 20.317 0.000 2.246
110 5 1 20.317 0.000 2.807
111 5 1 20.317 0.000 3.368
112 5 1 20.317 0.000 3.930
113 5 1 20.317 0.000 4.491
114 5 1 20.317 0.000 5.053
115 5 1 20.317 0.000 5.614
116 5 1 20.317 0.000 6.175
117 5 1 20.317 0.000 6.737
118 5 1 20.317 0.000 7.298
119 5 1 20.317 0.000 7.860
120 5 1 20.317 0.000 8.421
121 5 1 20.317 0.000 8.982
122 5 1 20.317 0.000 9.544
123 5 1 20.317 0.000 10.105
124 5 1 20.317 0.000 10.667
125 5 1 20.317 0.000 11.228
126 5 1 20.317 0.000 11.789
127 5 1 20.317 0.000 12.351
128 5 1 20.317 0.000 12.912
129 5 1 20.317 0.000 13.474
130 5 1 20.317 0.000 14.035
131 6 1 25.397 0.000 0.000
132 6 1 25.397 0.000 0.561
133 6 1 25.397 0.000 1.123
134 6 1 25.397 0.000 1.684
135 6 1 25.397 0.000 2.246
136 6 1 25.397 0.000 2.807
137 6 1 25.397 0.000 3.368
138 6 1 25.397 0.000 3.930
139 6 1 25.397 0.000 4.491
140 6 1 25.397 0.000 5.053
141 6 1 25.397 0.000 5.614
142 6 1 25.397 0.000 6.175
143 6 1 25.397 0.000 6.737
144 6 1 25.397 0.000 7.298
145 6 1 25.397 0.000 7.860
146 6 1 25.397 0.000 8.421
147 6 1 25.397 0.000 8.982
148 6 1 25.397 0.000 9.544
149 6 1 25.397 0.000 10.105
150 6 1 25.397 0.000 10.667
151 6 1 25.397 0.000 11.228
152 6 1 25.397 0.000 11.789
153 6 1 25.397 0.000 12.351
154 6 1 25.397 0.000 12.912
155 6 1 25.397 0.000 13.474
156 6 1 25.397 0.000 14.035
157 7 1 0.000 6.038 0.000
158 7 1 0.000 6.038 0.561
159 7 1 0.000 6.038 1.123
160 7 1 0.000 6.038 1.684
161 7 1 0.000 6.038 2.246
162 7 1 0.000 6.038 2.807
163 7 1 0.000 6.038 3.368
164 7 1 0.000 6.038 3.930
165 7 1 0.000 6.038 4.491
166 7 1 0.000 6.038 5.053
167 7 1 0.000 6.038 5.614
168 7 1 0.000 6.038 6.175
169 7 1 0.000 6.038 6.737
170 7 1 0.000 6.038 7.298
171 7 1 0.000 6.038 7.860
172 7 1 0.000 6.038 8.421
173 7 1 0.000 6.038 8.982
174 7 1 0.000 6.038 9.544
175 7 1 0.000 6.038 10.105
176 7 1 0.000 6.038 10.667
177 7 1 0.000 6.038 11.228
178 7 1 0.000 6.038 11.789
179 7 1 0.000 6.038 12.351
180 7 1 0.000 6.038 12.912
181 7 1 0.000 6.038 13.474
182 7 1 0.000 6.038 14.035
183 8 1 5.079 6.038 0.000
184 8 1 5.079 6.038 0.561
185 8 1 5.079 6.038 1.123
186 8 1 5.079 6.038 1.684
187 8 1 5.079 6.038 2.246
188 8 1 5.079 6.038 2.807
189 8 1 5.079 6.038 3.368
190 8 1 5.079 6.038 3.930
191 8 1 5.079 6.038 4.491
192 8 1 5.079 6.038 5.053
193 8 1 5.079 6.038 5.614
194 8 1 5.079 6.038 6.175
195 8 1 5.079 6.038 6.737
196 8 1 5.079 6.038 7.298
197 8 1 5.079 6.038 7.860
198 8 1 5.079 6.038 8.421
199 8 1 5.079 6.038 8.982
200 8 1 5.079 6.038 9.544
201 8 1 5.079 6.038 10.105
202 8 1 5.079 6.038 10.667
203 8 1 5.079 6.038 11.228
204 8 1 5.079 6.038 11.789
205 8 1 5.079 6.038 12.351
206 8 1 5.079 6.038 12.912
207 8 1 5.079 6.038 13.474
208 8 1 5.079 6.038 14.035
209 9 1 10.159 6.038 0.000
210 9 1 10.159 6.038 0.561
211 9 1 10.159 6.038 1.123
212 9 1 10.159 6.038 1.684
213 9 1 10.159 6.038 2.246
214 9 1 10.159 6.038 2.807
215 9 1 10.159 6.038 3.368
216 9 1 10.159 6.038 3.930
217 9 1 10.159 6.038 4.491
218 9 1 10.159 6.038 5.053
219 9 1 10.159 6.038 5.614
220 9 1 10.159 6.038 6.175
221 9 1 10.159 6.038 6.737
222 9 1 10.159 6.038 7.298
223 9 1 10.159 6.038 7.860
224 9 1 10.159 6.038 8.421
225 9 1 10.159 6.038 8.982
226 9 1 10.159 6.038 9.544
227 9 1 10.159 6.038 10.105
228 9 1 10.159 6.038 10.667
229 9 1 10.159 6.038 11.228
230 9 1 10.159 6.038 11.789
231 9 1 10.159 6.038 12.351
232 9 1 10.159 6.038 12.912
233 9 1 10.159 6.038 13.474
234 9 1 10.159 6.038 14.035
235 10 1 15.238 6.038 0.000
236 10 1 15.238 6.038 0.561
237 10 1 15.238 6.038 1.123
238 10 1 15.238 6.038 1.684
239 10 1 15.238 6.038 2.246
240 10 1 15.238 6.038 2.807
241 10 1 15.238 6.038 3.368
242 10 1 15.238 6.038 3.930
243 10 1 15.238 6.038 4.491
244 10 1 15.238 6.038 5.053
245 10 1 15.238 6.038 5.614
246 10 1 15.238 6.038 6.175
247 10 1 15.238 6.038 6.737
248 10 1 15.238 6.038 7.298
249 10 1 15.238 6.038 7.860
250 10 1 15.238 6.038 8.421
251 10 1 15.238 6.038 8.982
252 10 1 15.238 6.038 9.544
253 10 1 15.238 6.038 10.105
254 10 1 15.238 6.038 10.667
255 10 1 15.238 6.038 11.228
256 10 1 15.238 6.038 11.789
257 10 1 15.238 6.038 12.351
258 10 1 15.238 6.038 12.912
259 10 1 15.238 6.038 13.474
260 10 1 15.238 6.038 14.035
261 11 1 20.317 6.038 0.000
262 11 1 20.317 6.038 0.561
263 11 1 20.317 6.038 1.123
264 11 1 20.317 6.038 1.684
265 11 1 20.317 6.038 2.246
266 11 1 20.317 6.038 2.807
267 11 1 20.317 6.038 3.368
268 11 1 20.317 6.038 3.930
269 11 1 20.317 6.038 4.491
270 11 1 20.317 6.038 5.053
271 11 1 20.317 6.038 5.614
272 11 1 20.317 6.038 6.175
273 11 1 20.317 6.038 6.737
274 11 1 20.317 6.038 7.298
275 11 1 20.317 6.038 7.860
276 11 1 20.317 6.038 8.421
277 11 1 20.317 6.038 8.982
278 11 1 20.317 6.038 9.544
279 11 1 20.317 6.038 10.105
280 11 1 20.317 6.038 10.667
281 11 1 20.317 6.038 11.228
282 11 1 20.317 6.038 11.789
283 11 1 20.317 6.038 12.351
284 11 1 20.317 6.038 12.912
285 11 1 20.317 6.038 13.474
286 11 1 20.317 6.038 14.035
287 12 1 25.397 6.038 0.000
288 12 1 25.397 6.038 0.561
289 12 1 25.397 6.038 1.123
290 12 1 25.397 6.038 1.684
291 12 1 25.397 6.038 2.246
292 12 1 25.397 6.038 2.807
293 12 1 25.397 6.038 3.368
294 12 1 25.397 6.038 3.930
295 12 1 25.397 6.038 4.491
296 12 1 25.397 6.038 5.053
297 12 1 25.397 6.038 5.614
298 12 1 25.397 6.038 6.175
299 12 1 25.397 6.038 6.737
300 12 1 25.397 6.038 7.298
301 12 1 25.397 6.038 7.860
302 12 1 25.397 6.038 8.421
303 12 1 25.397 6.038 8.982
304 12 1 25.397 6.038 9.544
305 12 1 25.397 6.038 10.105
306 12 1 25.397 6.038 10.667
307 12 1 25.397 6.038 11.228
308 12 1 25.397 6.038 11.789
309 12 1 25.397 6.038 12.351
310 12 1 25.397 6.038 12.912
311 12 1 25.397 6.038 13.474
312 12 1 25.397 6.038 14.035
313 13 1 0.000 12.075 0.000
314 13 1 0.000 12.075 0.561
315 13 1 0.000 12.075 1.123
316 13 1 0.000 12.075 1.684
317 13 1 0.000 12.075 2.246
318 13 1 0.000 12.075 2.807
319 13 1 0.000 12.075 3.368
320 13 1 0.000 12.075 3.930
321 13 1 0.000 12.075 4.491
322 13 1 0.000 12.075 5.053
323 13 1 0.000 12.075 5.614
324 13 1 0.000 12.075 6.175
325 13 1 0.000 12.075 6.737
326 13 1 0.000 12.075 7.298
327 13 1 0.000 12.075 7.860
328 13 1 0.000 12.075 8.421
329 13 1 0.000 12.075 8.982
330 13 1 0.000 12.075 9.544
331 13 1 0.000 12.075 10.105
332 13 1 0.000 12.075 10.667
333 13 1 0.000 12.075 11.228
334 13 1 0.000 12.075 11.789
335 13 1 0.000 12.075 12.351
336 13 1 0.000 12.075 12.912
337 13 1 0.000 12.075 13.474
338 13 1 0.000 12.075 14.035
339 14 1 5.079 12.075 0.000
340 14 1 5.079 12.075 0.561
341 14 1 5.079 12.075 1.123
342 14 1 5.079 12.075 1.684
343 14 1 5.079 12.075 2.246
344 14 1 5.079 12.075 2.807
345 14 1 5.079 12.075 3.368
346 14 1 5.079 12.075 3.930
347 14 1 5.079 12.075 4.491
348 14 1 5.079 12.075 5.053
349 14 1 5.079 12.075 5.614
350 14 1 5.079 12.075 6.175
351 14 1 5.079 12.075 6.737
352 14 1 5.079 12.075 7.298
353 14 1 5.079 12.075 7.860
354 14 1 5.079 12.075 8.421
355 14 1 5.079 12.075 8.982
356 14 1 5.079 12.075 9.544
357 14 1 5.079 12.075 10.105
358 14 1 5.079 12.075 10.667
359 14 1 5.079 12.075 11.228
360 14 1 5.079 12.075 11.789
361 14 1 5.079 12.075 12.351
362 14 1 5.079 12.075 12.912
363 14 1 5.079 12.075 13.474
364 14 1 5.079 12.075 14.035
365 15 1 10.159 12.075 0.000
366 15 1 10.159 12.075 0.561
367 15 1 10.159 12.075 1.123
368 15 1 10.159 12.075 1.684
369 15 1 10.159 12.075 2.246
370 15 1 10.159 12.075 2.807
371 15 1 10.159 12.075 3.368
372 15 1 10.159 12.075 3.930
373 15 1 10.159 12.075 4.491
374 15 1 10.159 12.075 5.053
375 15 1 10.159 12.075 5.614
376 15 1 10.159 12.075 6.175
377 15 1 10.159 12.075 6.737
378 15 1 10.159 12.075 7.298
379 15 1 10.159 12.075 7.860
380 15 1 10.159 12.075 8.421
381 15 1 10.159 12.075 8.982
382 15 1 10.159 12.075 9.544
383 15 1 10.159 12.075 10.105
384 15 1 10.159 12.075 10.667
385 15 1 10.159 12.075 11.228
386 15 1 10.159 12.075 11.789
387 15 1 10.159 12.075 12.351
388 15 1 10.159 12.075 12.912
389 15 1 10.159 12.075 13.474
390 15 1 10.159 12.075 14.035
391 16 1 15.238 12.075 0.000
392 16 1 15.238 12.075 0.561
393 16 1 15.238 12.075 1.123
394 16 1 15.238 12.075 1.684
395 16 1 15.238 12.075 2.246
396 16 1 15.238 12.075 2.807
397 16 1 15.238 12.075 3.368
398 16 1 15.238 12.075 3.930
399 16 1 15.238 12.075 4.491
400 16 1 15.238 12.075 5.053
401 16 1 15.238 12.075 5.614
402 16 1 15.238 12.075 6.175
403 16 1 15.238 12.075 6.737
404 16 1 15.238 12.075 7.298
405 16 1 15.238 12.075 7.860
406 16 1 15.238 12.075 8.421
407 16 1 15.238 12.075 8.982
408 16 1 15.238 12.075 9.544
409 16 1 15.238 12.075 10.105
410 16 1 15.238 12.075 10.667
411 16 1 15.238 12.075 11.228
412 16 1 15.238 12.075 11.789
413 16 1 15.238 12.075 12.351
414 16 1 15.238 12.075 12.912
415 16 1 15.238 12.075 13.474
416 16 1 15.238 12.075 14.035
417 17 1 20.317 12.075 0.000
418 17 1 20.317 12.075 0.561
419 17 1 20.317 12.075 1.123
420 17 1 20.317 12.075 1.684
421 17 1 20.317 12.075 2.246
422 17 1 20.317 12.075 2.807
423 17 1 20.317 12.075 3.368
424 17 1 20.317 12.075 3.930
425 17 1 20.317 12.075 4.491
426 17 1 20.317 12.075 5.053
427 17 1 20.317 12.075 5.614
428 17 1 20.317 12.075 6.175
429 17 1 20.317 12.075 6.737
430 17 1 20.317 12.075 7.298
431 17 1 20.317 12.075 7.860
432 17 1 20.317 12.075 8.421
433 17 1 20.317 12.075 8.982
434 17 1 20.317 12.075 9.544
435 17 1 20.317 12.075 10.105
436 17 1 20.317 12.075 10.667
437 17 1 20.317 12.075 11.228
438 17 1 20.317 12.075 11.789
439 17 1 20.317 12.075 12.351
440 17 1 20.317 12.075 12.912
441 17 1 20.317 12.075 13.474
442 17 1 20.317 12.075 14.035
443 18 1 25.397 12.075 0.000
444 18 1 25.397 12.075 0.561
445 18 1 25.397 12.075 1.123
446 18 1 25.397 12.075 1.684
447 18 1 25.397 12.075 2.246
448 18 1 25.397 12.075 2.807
449 18 1 25.397 12.075 3.368
450 18 1 25.397 12.075 3.930
451 18 1 25.397 12.075 4.491
452 18 1 25.397 12.075 5.053
453 18 1 25.397 12.075 5.614
454 18 1 25.397 12.075 6.175
455 18 1 25.397 12.075 6.737
456 18 1 25.397 12.075 7.298
457 18 1 25.397 12.075 7.860
458 18 1 25.397 12.075 8.421
459 18 1 25.397 12.075 8.982
460 18 1 25.397 12.075 9.544
461 18 1 25.397 12.075 10.105
462 18 1 25.397 12.075 10.667
463 18 1 25.397 12.075 11.228
464 18 1 25.397 12.075 11.789
465 18 1 25.397 12.075 12.351
466 18 1 25.397 12.075 12.912
467 18 1 25.397 12.075 13.474
468 18 1 25.397 12.075 14.035
469 19 1 0.000 18.113 0.000
470 19 1 0.000 18.113 0.561
471 19 1 0.000 18.113 1.123
472 19 1 0.000 18.113 1.684
473 19 1 0.000 18.113 2.246
474 19 1 0.000 18.113 2.807
475 19 1 0.000 18.113 3.368
476 19 1 0.000 18.113 3.930
477 19 1 0.000 18.113 4.491
478 19 1 0.000 18.113 5.053
479 19 1 0.000 18.113 5.614
480 19 1 0.000 18.113 6.175
481 19 1 0.000 18.113 6.737
482 19 1 0.000 18.113 7.298
483 19 1 0.000 18.113 7.860
484 19 1 0.000 18.113 8.421
485 19 1 0.000 18.113 8.982
486 19 1 0.000 18.113 9.544
487 19 1 0.000 18.113 10.105
488 19 1 0.000 18.113 10.667
489 19 1 0.000 18.113 11.228
490 19 1 0.000 18.113 11.789
491 19 1 0.000 18.113 12.351
492 19 1 0.000 18.113 12.912
493 19 1 0.000 18.113 13.474
494 19 1 0.000 18.113 14.035
495 20 1 5.079 18.113 0.000
496 20 1 5.079 18.113 0.561
497 20 1 5.079 18.113 1.123
498 20 1 5.079 18.113 1.684
499 20 1 5.079 18.113 2.246
500 20 1 5.079 18.113 2.807
501 20 1 5.079 18.113 3.368
502 20 1 5.079 18.113 3.930
503 20 1 5.079 18.113 4.491
504 20 1 5.079 18.113 5.053
505 20 1 5.079 18.113 5.614
506 20 1 5.079 18.113 6.175
507 20 1 5.079 18.113 6.737
508 20 1 5.079 18.113 7.298
509 20 1 5.079 18.113 7.860
510 20 1 5.079 18.113 8.421
511 20 1 5.079 18.113 8.982
512 20 1 5.079 18.113 9.544
513 20 1 5.079 18.113 10.105
514 20 1 5.079 18.113 10.667
515 20 1 5.079 18.113 11.228
516 20 1 5.079 18.113 11.789
517 20 1 5.079 18.113 12.351
518 20 1 5.079 18.113 12.912
519 20 1 5.079 18.113 13.474
520 20 1 5.079 18.113 14.035
521 21 1 10.159 18.113 0.000
522 21 1 10.159 18.113 0.561
523 21 1 10.159 18.113 1.123
524 21 1 10.159 18.113 1.684
525 21 1 10.159 18.113 2.246
526 21 1 10.159 18.113 2.807
527 21 1 10.159 18.113 3.368
528 21 1 10.159 18.113 3.930
529 21 1 10.159 18.113 4.491
530 21 1 10.159 18.113 5.053
531 21 1 10.159 18.113 5.614
532 21 1 10.159 18.113 6.175
533 21 1 10.159 18.113 6.737
534 21 1 10.159 18.113 7.298
535 21 1 10.159 18.113 7.860
536 21 1 10.159 18.113 8.421
537 21 1 10.159 18.113 8.982
538 21 1 10.159 18.113 9.544
539 21 1 10.159 18.113 10.105
540 21 1 10.159 18.113 10.667
541 21 1 10.159 18.113 11.228
542 21 1 10.159 18.113 11.789
543 21 1 10.159 18.113 12.351
544 21 1 10.159 18.113 12.912
545 21 1 10.159 18.113 13.474
546 21 1 10.159 18.113 14.035
547 22 1 15.238 18.113 0.000
548 22 1 15.238 18.113 0.561
549 22 1 15.238 18.113 1.123
550 22 1 15.238 18.113 1.684
551 22 1 15.238 18.113 2.246
552 22 1 15.238 18.113 2.807
553 22 1 15.238 18.113 3.368
554 22 1 15.238 18.113 3.930
555 22 1 15.238 18.113 4.491
556 22 1 15.238 18.113 5.053
557 22 1 15.238 18.113 5.614
558 22 1 15.238 18.113 6.175
559 22 1 15.238 18.113 6.737
560 22 1 15.238 18.113 7.298
561 22 1 15.238 18.113 7.860
562 22 1 15.238 18.113 8.421
563 22 1 15.238 18.113 8.982
564 22 1 15.238 18.113 9.544
565 22 1 15.238 18.113 10.105
566 22 1 15.238 18.113 10.667
567 22 1 15.238 18.113 11.228
568 22 1 15.238 18.113 11.789
569 22 1 15.238 18.113 12.351
570 22 1 15.238 18.113 12.912
571 22 1 15.238 18.113 13.474
572 22 1 15.238 18.113 14.035
573 23 1 20.317 18.113 0.000
574 23 1 20.317 18.113 0.561
575 23 1 20.317 18.113 1.123
576 23 1 20.317 18.113 1.684
577 23 1 20.317 18.113 2.246
578 23 1 20.317 18.113 2.807
579 23 1 20.317 18.113 3.368
580 23 1 20.317 18.113 3.930
581 23 1 20.317 18.113 4.491
582 23 1 20.317 18.113 5.053
583 23 1 20.317 18.113 5.614
584 23 1 20.317 18.113 6.175
585 23 1 20.317 18.113 6.737
586 23 1 20.317 18.113 7.298
587 23 1 20.317 18.113 7.860
588 23 1 20.317 18.113 8.421
589 23 1 20.317 18.113 8.982
590 23 1 20.317 18.113 9.544
591 23 1 20.317 18.113 10.105
592 23 1 20.317 18.113 10.667
593 23 1 20.317 18.113 11.228
594 23 1 20.317 18.113 11.789
595 23 1 20.317 18.113 12.351
596 23 1 20.317 18.113 12.912
597 23 1 20.317 18.113 13.474
598 23 1 20.317 18.113 14.035
599 24 1 25.397 18.113 0.000
600 24 1 25.397 18.113 0.561
601 24 1 25.397 18.113 1.123
602 24 1 25.397 18.113 1.684
603 24 1 25.397 18.113 2.246
604 24 1 25.397 18.113 2.807
605 24 1 25.397 18.113 3.368
606 24 1 25.397 18.113 3.930
607 24 1 25.397 18.113 4.491
608 24 1 25.397 18.113 5.053
609 24 1 25.397 18.113 5.614
610 24 1 25.397 18.113 6.175
611 24 1 25.397 18.113 6.737
612 24 1 25.397 18.113 7.298
613 24 1 25.397 18.113 7.860
614 24 1 25.397 18.113 8.421
615 24 1 25.397 18.113 8.982
616 24 1 25.397 18.113 9.544
617 24 1 25.397 18.113 10.105
618 24 1 25.397 18.113 10.667
619 24 1 25.397 18.113 11.228
620 24 1 25.397 18.113 11.789
621 24 1 25.397 18.113 12.351
622 24 1 25.397 18.113 12.912
623 24 1 25.397 18.113 13.474
624 24 1 25.397 18.113 14.035
625 25 1 0.000 24.151 0.000
626 25 1 0.000 24.151 0.561
627 25 1 0.000 24.151 1.123
628 25 1 0.000 24.151 1.684
629 25 1 0.000 24.151 2.246
630 25 1 0.000 24.151 2.807
631 25 1 0.000 24.151 3.368
632 25 1 0.000 24.151 3.930
633 25 1 0.000 24.151 4.491
634 25 1 0.000 24.151 5.053
635 25 1 0.000 24.151 5.614
636 25 1 0.000 24.151 6.175
637 25 1 0.000 24.151 6.737
638 25 1 0.000 24.151 7.298
639 25 1 0.000 24.151 7.860
640 25 1 0.000 24.151 8.421
641 25 1 0.000 24.151 8.982
642 25 1 0.000 24.151 9.544
643 25 1 0.000 24.151 10.105
644 25 1 0.000 24.151 10.667
645 25 1 0.000 24.151 11.228
646 25 1 0.000 24.151 11.789
647 25 1 0.000 24.151 12.351
648 25 1 0.000 24.151 12.912
649 25 1 0.000 24.151 13.474
650 25 1 0.000 24.151 14.035
651 26 1 5.079 24.151 0.000
652 26 1 5.079 24.151 0.561
653 26 1 5.079 24.151 1.123
654 26 1 5.079 24.151 1.684
655 26 1 5.079 24.151 2.246
656 26 1 5.079 24.151 2.807
657 26 1 5.079 24.151 3.368
658 26 1 5.079 24.151 3.930
659 26 1 5.079 24.151 4.491
660 26 1 5.079 24.151 5.053
661 26 1 5.079 24.151 5.614
662 26 1 5.079 24.151 6.175
663 26 1 5.079 24.151 6.737
664 26 1 5.079 24.151 7.298
665 26 1 5.079 24.151 7.860
666 26 1 5.079 24.151 8.421
667 26 1 5.079 24.151 8.982
668 26 1 5.079 24.151 9.544
669 26 1 5.079 24.151 10.105
670 26 1 5.079 24.151 10.667
671 26 1 5.079 24.151 11.228
672 26 1 5.079 24.151 11.789
673 26 1 5.079 24.151 12.351
674 26 1 5.079 24.151 12.912
675 26 1 5.079 24.151 13.474
676 26 1 5.079 24.151 14.035
677 27 1 10.159 24.151 0.000
678 27 1 10.159 24.151 0.561
679 27 1 10.159 24.151 1.123
680 27 1 10.159 24.151 1.684
681 27 1 10.159 24.151 2.246
682 27 1 10.159 24.151 2.807
683 27 1 10.159 24.151 3.368
684 27 1 10.159 24.151 3.930
685 27 1 10.159 24.151 4.491
686 27 1 10.159 24.151 5.053
687 27 1 10.159 24.151 5.614
688 27 1 10.159 24.151 6.175
689 27 1 10.159 24.151 6.737
690 27 1 10.159 24.151 7.298
691 27 1 10.159 24.151 7.860
692 27 1 10.159 24.151 8.421
693 27 1 10.159 24.151 8.982
694 27 1 10.159 24.151 9.544
695 27 1 10.159 24.151 10.105
696 27 1 10.159 24.151 10.667
697 27 1 10.159 24.151 11.228
698 27 1 10.159 24.151 11.789
699 27 1 10.159 24.151 12.351
700 27 1 10.159 24.151 12.912
701 27 1 10.159 24.151 13.474
702 27 1 10.159 24.151 14.035
703 28 1 15.238 24.151 0.000
704 28 1 15.238 24.151 0.561
705 28 1 15.238 24.151 1.123
706 28 1 15.238 24.151 1.684
707 28 1 15.238 24.151 2.246
708 28 1 15.238 24.151 2.807
709 28 1 15.238 24.151 3.368
710 28 1 15.238 24.151 3.930
711 28 1 15.238 24.151 4.491
712 28 1 15.238 24.151 5.053
713 28 1 15.238 24.151 5.614
714 28 1 15.238 24.151 6.175
715 28 1 15.238 24.151 6.737
716 28 1 15.238 24.151 7.298
717 28 1 15.238 24.151 7.860
718 28 1 15.238 24.151 8.421
719 28 1 15.238 24.151 8.982
720 28 1 15.238 24.151 9.544
721 28 1 15.238 24.151 10.105
722 28 1 15.238 24.151 10.667
723 28 1 15.238 24.151 11.228
724 28 1 15.238 24.151 11.789
725 28 1 15.238 24.151 12.351
726 28 1 15.238 24.151 12.912
727 28 1 15.238 24.151 13.474
728 28 1 15.238 24.151 14.035
729 29 1 20.317 24.151 0.000
730 29 1 20.317 24.151 0.561
731 29 1 20.317 24.151 1.123
732 29 1 20.317 24.151 1.684
733 29 1 20.317 24.151 2.246
734 29 1 20.317 24.151 2.807
735 29 1 20.317 24.151 3.368
736 29 1 20.317 24.151 3.930
737 29 1 20.317 24.151 4.491
738 29 1 20.317 24.151 5.053
739 29 1 20.317 24.151 5.614
740 29 1 20.317 24.151 6.175
741 29 1 20.317 24.151 6.737
742 29 1 20.317 24.151 7.298
743 29 1 20.317 24.151 7.860
744 29 1 20.317 24.151 8.421
745 29 1 20.317 24.151 8.982
746 29 1 20.317 24.151 9.544
747 29 1 20.317 24.151 10.105
748 29 1 20.317 24.151 10.667
749 29 1 20.317 24.151 11.228
750 29 1 20.317 24.151 11.789
751 29 1 20.317 24.151 12.351
752 29 1 20.317 24.151 12.912
753 29 1 20.317 24.151 13.474
754 29 1 20.317 24.151 14.035
755 30 1 25.397 24.151 0.000
756 30 1 25.397 24.151 0.561
757 30 1 25.397 24.151 1.123
758 30 1 25.397 24.151 1.684
759 30 1 25.397 24.151 2.246
760 30 1 25.397 24.151 2.807
761 30 1 25.397 24.151 3.368
762 30 1 25.397 24.151 3.930
763 30 1 25.397 24.151 4.491
764 30 1 25.397 24.151 5.053
765 30 1 25.397 24.151 5.614
766 30 1 25.397 24.151 6.175
767 30 1 25.397 24.151 6.737
768 30 1 25.397 24.151 7.298
769 30 1 25.397 24.151 7.860
770 30 1 25.397 24.151 8.421
771 30 1 25.397 24.151 8.982
772 30 1 25.397 24.151 9.544
773 30 1 25.397 24.151 10.105
774 30 1 25.397 24.151 10.667
775 30 1 25.397 24.151 11.228
776 30 1 25.397 24.151 11.789
777 30 1 25.397 24.151 12.351
778 30 1 25.397 24.151 12.912
779 30 1 25.397 24.151 13.474
780 30 1 25.397 24.151 14.035
781 31 2 2.540 3.019 16.842
782 31 2 2.540 3.019 17.404
783 31 2 2.540 3.019 17.965
784 31 2 2.540 3.019 18.526
785 31 2 2.540 3.019 19.088
786 31 2 2.540 3.019 19.649
787 31 2 2.540 3.019 20.211
788 31 2 2.540 3.019 20.772
789 31 2 2.540 3.019 21.333
790 31 2 2.540 3.019 21.895
791 31 2 2.540 3.019 22.456
792 31 2 2.540 3.019 23.018
793 31 2 2.540 3.019 23.579
794 31 2 2.540 3.019 24.140
795 31 2 2.540 3.019 24.702
796 31 2 2.540 3.019 25.263
797 31 2 2.540 3.019 25.825
798 31 2 2.540 3.019 26.386
799 31 2 2.540 3.019 26.947
800 31 2 2.540 3.019 27.509
801 31 2 2.540 3.019 28.070
802 31 2 2.540 3.019 28.632
803 31 2 2.540 3.019 29.193
804 31 2 2.540 3.019 29.754
805 31 2 2.540 3.019 30.316
806 31 2 2.540 3.019 30.877
807 32 2 7.619 3.019 16.842
808 32 2 7.619 3.019 17.404
809 32 2 7.619 3.019 17.965
810 32 2 7.619 3.019 18.526
811 32 2 7.619 3.019 19.088
812 32 2 7.619 3.019 19.649
813 32 2 7.619 3.019 20.211
814 32 2 7.619 3.019 20.772
815 32 2 7.619 3.019 21.333
816 32 2 7.619 3.019 21.895
817 32 2 7.619 3.019 22.456
818 32 2 7.619 3.019 23.018
819 32 2 7.619 3.019 23.579
820 32 2 7.619 3.019 24.140
821 32 2 7.619 3.019 24.702
822 32 2 7.619 3.019 25.263
823 32 2 7.619 3.019 25.825
824 32 2 7.619 3.019 26.386
825 32 2 7.619 3.019 26.947
826 32 2 7.619 3.019 27.509
827 32 2 7.619 3.019 28.070
828 32 2 7.619 3.019 28.632
829 32 2 7.619 3.019 29.193
830 32 2 7.619 3.019 29.754
831 32 2 7.619 3.019 30.316
832 32 2 7.619 3.019 30.877
833 33 2 12.698 3.019 16.842
834 33 2 12.698 3.019 17.404
835 33 2 12.698 3.019 17.965
836 33 2 12.698 3.019 18.526
837 33 2 12.698 3.019 19.088
838 33 2 12.698 3.019 19.649
839 33 2 12.698 3.019 20.211
840 33 2 12.698 3.019 20.772
841 33 2 12.698 3.019 21.333
842 33 2 12.698 3.019 21.895
843 33 2 12.698 3.019 22.456
844 33 2 12.698 3.019 23.018
845 33 2 12.698 3.019 23.579
846 33 2 12.698 3.019 24.140
847 33 2 12.698 3.019 24.702
848 33 2 12.698 3.019 25.263
849 33 2 12.698 3.019 25.825
850 33 2 12.698 3.019 26.386
851 33 2 12.698 3.019 26.947
852 33 2 12.698 3.019 27.509
853 33 2 12.698 3.019 28.070
854 33 2 12.698 3.019 28.632
855 33 2 12.698 3.019 29.193
856 33 2 12.698 3.019 29.754
857 33 2 12.698 3.019 30.316
858 33 2 12.698 3.019 30.877
859 34 2 17.778 3.019 16.842
860 34 2 17.778 3.019 17.404
861 34 2 17.778 3.019 17.965
862 34 2 17.778 3.019 18.526
863 34 2 17.778 3.019 19.088
864 34 2 17.778 3.019 19.649
865 34 2 17.778 3.019 20.211
866 34 2 17.778 3.019 20.772
867 34 2 17.778 3.019 21.333
868 34 2 17.778 3.019 21.895
869 34 2 17.778 3.019 22.456
870 34 2 17.778 3.019 23.018
871 34 2 17.778 3.019 23.579
872 34 2 17.778 3.019 24.140
873 34 2 17.778 3.019 24.702
874 34 2 17.778 3.019 25.263
875 34 2 17.778 3.019 25.825
876 34 2 17.778 3.019 26.386
877 34 2 17.778 3.019 26.947
878 34 2 17.778 3.019 27.509
879 34 2 17.778 3.019 28.070
880 34 2 17.778 3.019 28.632
881 34 2 17.778 3.019 29.193
882 34 2 17.778 3.019 29.754
883 34 2 17.778 3.019 30.316
884 34 2 17.778 3.019 30.877
885 35 2 22.857 3.019 16.842
886 35 2 22.857 3.019 17.404
887 35 2 22.857 3.019 17.965
888 35 2 22.857 3.019 18.526
889 35 2 22.857 3.019 19.088
890 35 2 22.857 3.019 19.649
891 35 2 22.857 3.019 20.211
892 35 2 22.857 3.019 20.772
893 35 2 22.857 3.019 21.333
894 35 2 22.857 3.019 21.895
895 35 2 22.857 3.019 22.456
896 35 2 22.857 3.019 23.018
897 35 2 22.857 3.019 23.579
898 35 2 22.857 3.019 24.140
899 35 2 22.857 3.019 24.702
900 35 2 22.857 3.019 25.263
901 35 2 22.857 3.019 25.825
902 35 2 22.857 3.019 26.386
903 35 2 22.857 3.019 26.947
904 35 2 22.857 3.019 27.509
905 35 2 22.857 3.019 28.070
906 35 2 22.857 3.019 28.632
907 35 2 22.857 3.019 29.193
908 35 2 22.857 3.019 29.754
909 35 2 22.857 3.019 30.316
910 35 2 22.857 3.019 30.877
911 36 2 27.937 3.019 16.842
912 36 2 27.937 3.019 17.404
913 36 2 27.937 3.019 17.965
914 36 2 27.937 3.019 18.526
915 36 2 27.937 3.019 19.088
916 36 2 27.937 3.019 19.649
917 36 2 27.937 3.019 20.211
918 36 2 27.937 3.019 20.772
919 36 2 27.937 3.019 21.333
920 36 2 27.937 3.019 21.895
921 36 2 27.937 3.019 22.456
922 36 2 27.937 3.019 23.018
923 36 2 27.937 3.019 23.579
924 36 2 27.937 3.019 24.140
925 36 2 27.937 3.019 24.702
926 36 2 27.937 3.019 25.263
927 36 2 27.937 3.019 25.825
928 36 2 27.937 3.019 26.386
929 36 2 27.937 3.019 26.947
930 36 2 27.937 3.019 27.509
931 36 2 27.937 3.019 28.070
932 36 2 27.937 3.019 28.632
933 36 2 27.937 3.019 29.193
934 36 2 27.937 3.019 29.754
935 36 2 27.937 3.019 30.316
936 36 2 27.937 3.019 30.877
937 37 2 2.540 9.057 16.842
938 37 2 2.540 9.057 17.404
939 37 2 2.540 9.057 17.965
940 37 2 2.540 9.057 18.526
941 37 2 2.540 9.057 19.088
942 37 2 2.540 9.057 19.649
943 37 2 2.540 9.057 20.211
944 37 2 2.540 9.057 20.772
945 37 2 2.540 9.057 21.333
946 37 2 2.540 9.057 21.895
947 37 2 2.540 9.057 22.456
948 37 2 2.540 9.057 23.018
949 37 2 2.540 9.057 23.579
950 37 2 2.540 9.057 24.140
951 37 2 2.540 9.057 24.702
952 37 2 2.540 9.057 25.263
953 37 2 2.540 9.057 25.825
954 37 2 2.540 9.057 26.386
955 37 2 2.540 9.057 26.947
956 37 2 2.540 9.057 27.509
957 37 2 2.540 9.057 28.070
958 37 2 2.540 9.057 28.632
959 37 2 2.540 9.057 29.193
960 37 2 2.540 9.057 29.754
961 37 2 2.540 9.057 30.316
962 37 2 2.540 9.057 30.877
963 38 2 7.619 9.057 16.842
964 38 2 7.619 9.057 17.404
965 38 2 7.619 9.057 17.965
966 38 2 7.619 9.057 18.526
967 38 2 7.619 9.057 19.088
968 38 2 7.619 9.057 19.649
969 38 2 7.619 9.057 20.211
970 38 2 7.619 9.057 20.772
971 38 2 7.619 9.057 21.333
972 38 2 7.619 9.057 21.895
973 38 2 7.619 9.057 22.456
974 38 2 7.619 9.057 23.018
975 38 2 7.619 9.057 23.579
976 38 2 7.619 9.057 24.140
977 38 2 7.619 9.057 24.702
978 38 2 7.619 9.057 25.263
979 38 2 7.619 9.057 25.825
980 38 2 7.619 9.057 26.386
981 38 2 7.619 9.057 26.947
982 38 2 7.619 9.057 27.509
983 38 2 7.619 9.057 28.070
984 38 2 7.619 9.057 28.632
985 38 2 7.619 9.057 29.193
986 38 2 7.619 9.057 29.754
987 38 2 7.619 9.057 30.316
988 38 2 7.619 9.057 30.877
989 39 2 12.698 9.057 16.842
990 39 2 12.698 9.057 17.404
991 39 2 12.698 9.057 17.965
992 39 2 12.698 9.057 18.526
993 39 2 12.698 9.057 19.088
994 39 2 12.698 9.057 19.649
995 39 2 12.698 9.057 20.211
996 39 2 12.698 9.057 20.772
997 39 2 12.698 9.057 21.333
998 39 2 12.698 9.057 21.895
999 39 2 12.698 9.057 22.456
1000 39 2 12.698 9.057 23.018
1001 39 2 12.698 9.057 23.579
1002 39 2 12.698 9.057 24.140
1003 39 2 12.698 9.057 24.702
1004 39 2 12.698 9.057 25.263
1005 39 2 12.698 9.057 25.825
1006 39 2 12.698 9.057 26.386
1007 39 2 12.698 9.057 26.947
1008 39 2 12.698 9.057 27.509
1009 39 2 12.698 9.057 28.070
1010 39 2 12.698 9.057 28.632
1011 39 2 12.698 9.057 29.193
1012 39 2 12.698 9.057 29.754
1013 39 2 12.698 9.057 30.316
1014 39 2 12.698 9.057 30.877
1015 40 2 17.778 9.057 16.842
1016 40 2 17.778 9.057 17.404
1017 40 2 17.778 9.057 17.965
1018 40 2 17.778 9.057 18.526
1019 40 2 17.778 9.057 19.088
1020 40 2 17.778 9.057 19.649
1021 40 2 17.778 9.057 20.211
1022 40 2 17.778 9.057 20.772
1023 40 2 17.778 9.057 21.333
1024 40 2 17.778 9.057 21.895
1025 40 2 17.778 9.057 22.456
1026 40 2 17.778 9.057 23.018
1027 40 2 17.778 9.057 23.579
1028 40 2 17.778 9.057 24.140
1029 40 2 17.778 9.057 24.702
1030 40 2 17.778 9.057 25.263
1031 40 2 17.778 9.057 25.825
1032 40 2 17.778 9.057 26.386
1033 40 2 17.778 9.057 26.947
1034 40 2 17.778 9.057 27.509
1035 40 2 17.778 9.057 28.070
1036 40 2 17.778 9.057 28.632
1037 40 2 17.778 9.057 29.193
1038 40 2 17.778 9.057 29.754
1039 40 2 17.778 9.057 30.316
1040 40 2 17.778 9.057 30.877
1041 41 2 22.857 9.057 16.842
1042 41 2 22.857 9.057 17.404
1043 41 2 22.857 9.057 17.965
1044 41 2 22.857 9.057 18.526
1045 41 2 22.857 9.057 19.088
1046 41 2 22.857 9.057 19.649
1047 41 2 22.857 9.057 20.211
1048 41 2 22.857 9.057 20.772
1049 41 2 22.857 9.057 21.333
1050 41 2 22.857 9.057 21.895
1051 41 2 22.857 9.057 22.456
1052 41 2 22.857 9.057 23.018