LAMMPS data file for polymer chains

1320 atoms
1260 bonds

2 atom types
1 bond types

0.0 32.0 xlo xhi
0.0 32.0 ylo yhi
0.0 32.0 zlo zhi

Masses

1 1.0  # Type A
2 1.0  # Type B

Atoms # molecular

1 1 1 0.000 0.000 0.000
2 1 1 0.000 0.000 0.653
3 1 1 0.000 0.000 1.306
4 1 1 0.000 0.000 1.959
5 1 1 0.000 0.000 2.612
6 1 1 0.000 0.000 3.265
7 1 1 0.000 0.000 3.918
8 1 1 0.000 0.000 4.571
9 1 1 0.000 0.000 5.224
10 1 1 0.000 0.000 5.878
11 1 1 0.000 0.000 6.531
12 1 1 0.000 0.000 7.184
13 1 1 0.000 0.000 7.837
14 1 1 0.000 0.000 8.490
15 1 1 0.000 0.000 9.143
16 1 1 0.000 0.000 9.796
17 1 1 0.000 0.000 10.449
18 1 1 0.000 0.000 11.102
19 1 1 0.000 0.000 11.755
20 1 1 0.000 0.000 12.408
21 1 1 0.000 0.000 13.061
22 1 1 0.000 0.000 13.714
23 2 1 5.079 0.000 0.000
24 2 1 5.079 0.000 0.653
25 2 1 5.079 0.000 1.306
26 2 1 5.079 0.000 1.959
27 2 1 5.079 0.000 2.612
28 2 1 5.079 0.000 3.265
29 2 1 5.079 0.000 3.918
30 2 1 5.079 0.000 4.571
31 2 1 5.079 0.000 5.224
32 2 1 5.079 0.000 5.878
33 2 1 5.079 0.000 6.531
34 2 1 5.079 0.000 7.184
35 2 1 5.079 0.000 7.837
36 2 1 5.079 0.000 8.490
37 2 1 5.079 0.000 9.143
38 2 1 5.079 0.000 9.796
39 2 1 5.079 0.000 10.449
40 2 1 5.079 0.000 11.102
41 2 1 5.079 0.000 11.755
42 2 1 5.079 0.000 12.408
43 2 1 5.079 0.000 13.061
44 2 1 5.079 0.000 13.714
45 3 1 10.159 0.000 0.000
46 3 1 10.159 0.000 0.653
47 3 1 10.159 0.000 1.306
48 3 1 10.159 0.000 1.959
49 3 1 10.159 0.000 2.612
50 3 1 10.159 0.000 3.265
51 3 1 10.159 0.000 3.918
52 3 1 10.159 0.000 4.571
53 3 1 10.159 0.000 5.224
54 3 1 10.159 0.000 5.878
55 3 1 10.159 0.000 6.531
56 3 1 10.159 0.000 7.184
57 3 1 10.159 0.000 7.837
58 3 1 10.159 0.000 8.490
59 3 1 10.159 0.000 9.143
60 3 1 10.159 0.000 9.796
61 3 1 10.159 0.000 10.449
62 3 1 10.159 0.000 11.102
63 3 1 10.159 0.000 11.755
64 3 1 10.159 0.000 12.408
65 3 1 10.159 0.000 13.061
66 3 1 10.159 0.000 13.714
67 4 1 15.238 0.000 0.000
68 4 1 15.238 0.000 0.653
69 4 1 15.238 0.000 1.306
70 4 1 15.238 0.000 1.959
71 4 1 15.238 0.000 2.612
72 4 1 15.238 0.000 3.265
73 4 1 15.238 0.000 3.918
74 4 1 15.238 0.000 4.571
75 4 1 15.238 0.000 5.224
76 4 1 15.238 0.000 5.878
77 4 1 15.238 0.000 6.531
78 4 1 15.238 0.000 7.184
79 4 1 15.238 0.000 7.837
80 4 1 15.238 0.000 8.490
81 4 1 15.238 0.000 9.143
82 4 1 15.238 0.000 9.796
83 4 1 15.238 0.000 10.449
84 4 1 15.238 0.000 11.102
85 4 1 15.238 0.000 11.755
86 4 1 15.238 0.000 12.408
87 4 1 15.238 0.000 13.061
88 4 1 15.238 0.000 13.714
89 5 1 20.317 0.000 0.000
90 5 1 20.317 0.000 0.653
91 5 1 20.317 0.000 1.306
92 5 1 20.317 0.000 1.959
93 5 1 20.317 0.000 2.612
94 5 1 20.317 0.000 3.265
95 5 1 20.317 0.000 3.918
96 5 1 20.317 0.000 4.571
97 5 1 20.317 0.000 5.224
98 5 1 20.317 0.000 5.878
99 5 1 20.317 0.000 6.531
100 5 1 20.317 0.000 7.184
101 5 1 20.317 0.000 7.837
102 5 1 20.317 0.000 8.490
103 5 1 20.317 0.000 9.143
104 5 1 20.317 0.000 9.796
105 5 1 20.317 0.000 10.449
106 5 1 20.317 0.000 11.102
107 5 1 20.317 0.000 11.755
108 5 1 20.317 0.000 12.408
109 5 1 20.317 0.000 13.061
110 5 1 20.317 0.000 13.714
111 6 1 25.397 0.000 0.000
112 6 1 25.397 0.000 0.653
113 6 1 25.397 0.000 1.306
114 6 1 25.397 0.000 1.959
115 6 1 25.397 0.000 2.612
116 6 1 25.397 0.000 3.265
117 6 1 25.397 0.000 3.918
118 6 1 25.397 0.000 4.571
119 6 1 25.397 0.000 5.224
120 6 1 25.397 0.000 5.878
121 6 1 25.397 0.000 6.531
122 6 1 25.397 0.000 7.184
123 6 1 25.397 0.000 7.837
124 6 1 25.397 0.000 8.490
125 6 1 25.397 0.000 9.143
126 6 1 25.397 0.000 9.796
127 6 1 25.397 0.000 10.449
128 6 1 25.397 0.000 11.102
129 6 1 25.397 0.000 11.755
130 6 1 25.397 0.000 12.408
131 6 1 25.397 0.000 13.061
132 6 1 25.397 0.000 13.714
133 7 1 0.000 6.038 0.000
134 7 1 0.000 6.038 0.653
135 7 1 0.000 6.038 1.306
136 7 1 0.000 6.038 1.959
137 7 1 0.000 6.038 2.612
138 7 1 0.000 6.038 3.265
139 7 1 0.000 6.038 3.918
140 7 1 0.000 6.038 4.571
141 7 1 0.000 6.038 5.224
142 7 1 0.000 6.038 5.878
143 7 1 0.000 6.038 6.531
144 7 1 0.000 6.038 7.184
145 7 1 0.000 6.038 7.837
146 7 1 0.000 6.038 8.490
147 7 1 0.000 6.038 9.143
148 7 1 0.000 6.038 9.796
149 7 1 0.000 6.038 10.449
150 7 1 0.000 6.038 11.102
151 7 1 0.000 6.038 11.755
152 7 1 0.000 6.038 12.408
153 7 1 0.000 6.038 13.061
154 7 1 0.000 6.038 13.714
155 8 1 5.079 6.038 0.000
156 8 1 5.079 6.038 0.653
157 8 1 5.079 6.038 1.306
158 8 1 5.079 6.038 1.959
159 8 1 5.079 6.038 2.612
160 8 1 5.079 6.038 3.265
161 8 1 5.079 6.038 3.918
162 8 1 5.079 6.038 4.571
163 8 1 5.079 6.038 5.224
164 8 1 5.079 6.038 5.878
165 8 1 5.079 6.038 6.531
166 8 1 5.079 6.038 7.184
167 8 1 5.079 6.038 7.837
168 8 1 5.079 6.038 8.490
169 8 1 5.079 6.038 9.143
170 8 1 5.079 6.038 9.796
171 8 1 5.079 6.038 10.449
172 8 1 5.079 6.038 11.102
173 8 1 5.079 6.038 11.755
174 8 1 5.079 6.038 12.408
175 8 1 5.079 6.038 13.061
176 8 1 5.079 6.038 13.714
177 9 1 10.159 6.038 0.000
178 9 1 10.159 6.038 0.653
179 9 1 10.159 6.038 1.306
180 9 1 10.159 6.038 1.959
181 9 1 10.159 6.038 2.612
182 9 1 10.159 6.038 3.265
183 9 1 10.159 6.038 3.918
184 9 1 10.159 6.038 4.571
185 9 1 10.159 6.038 5.224
186 9 1 10.159 6.038 5.878
187 9 1 10.159 6.038 6.531
188 9 1 10.159 6.038 7.184
189 9 1 10.159 6.038 7.837
190 9 1 10.159 6.038 8.490
191 9 1 10.159 6.038 9.143
192 9 1 10.159 6.038 9.796
193 9 1 10.159 6.038 10.449
194 9 1 10.159 6.038 11.102
195 9 1 10.159 6.038 11.755
196 9 1 10.159 6.038 12.408
197 9 1 10.159 6.038 13.061
198 9 1 10.159 6.038 13.714
199 10 1 15.238 6.038 0.000
200 10 1 15.238 6.038 0.653
201 10 1 15.238 6.038 1.306
202 10 1 15.238 6.038 1.959
203 10 1 15.238 6.038 2.612
204 10 1 15.238 6.038 3.265
205 10 1 15.238 6.038 3.918
206 10 1 15.238 6.038 4.571
207 10 1 15.238 6.038 5.224
208 10 1 15.238 6.038 5.878
209 10 1 15.238 6.038 6.531
210 10 1 15.238 6.038 7.184
211 10 1 15.238 6.038 7.837
212 10 1 15.238 6.038 8.490
213 10 1 15.238 6.038 9.143
214 10 1 15.238 6.038 9.796
215 10 1 15.238 6.038 10.449
216 10 1 15.238 6.038 11.102
217 10 1 15.238 6.038 11.755
218 10 1 15.238 6.038 12.408
219 10 1 15.238 6.038 13.061
220 10 1 15.238 6.038 13.714
221 11 1 20.317 6.038 0.000
222 11 1 20.317 6.038 0.653
223 11 1 20.317 6.038 1.306
224 11 1 20.317 6.038 1.959
225 11 1 20.317 6.038 2.612
226 11 1 20.317 6.038 3.265
227 11 1 20.317 6.038 3.918
228 11 1 20.317 6.038 4.571
229 11 1 20.317 6.038 5.224
230 11 1 20.317 6.038 5.878
231 11 1 20.317 6.038 6.531
232 11 1 20.317 6.038 7.184
233 11 1 20.317 6.038 7.837
234 11 1 20.317 6.038 8.490
235 11 1 20.317 6.038 9.143
236 11 1 20.317 6.038 9.796
237 11 1 20.317 6.038 10.449
238 11 1 20.317 6.038 11.102
239 11 1 20.317 6.038 11.755
240 11 1 20.317 6.038 12.408
241 11 1 20.317 6.038 13.061
242 11 1 20.317 6.038 13.714
243 12 1 25.397 6.038 0.000
244 12 1 25.397 6.038 0.653
245 12 1 25.397 6.038 1.306
246 12 1 25.397 6.038 1.959
247 12 1 25.397 6.038 2.612
248 12 1 25.397 6.038 3.265
249 12 1 25.397 6.038 3.918
250 12 1 25.397 6.038 4.571
251 12 1 25.397 6.038 5.224
252 12 1 25.397 6.038 5.878
253 12 1 25.397 6.038 6.531
254 12 1 25.397 6.038 7.184
255 12 1 25.397 6.038 7.837
256 12 1 25.397 6.038 8.490
257 12 1 25.397 6.038 9.143
258 12 1 25.397 6.038 9.796
259 12 1 25.397 6.038 10.449
260 12 1 25.397 6.038 11.102
261 12 1 25.397 6.038 11.755
262 12 1 25.397 6.038 12.408
263 12 1 25.397 6.038 13.061
264 12 1 25.397 6.038 13.714
265 13 1 0.000 12.075 0.000
266 13 1 0.000 12.075 0.653
267 13 1 0.000 12.075 1.306
268 13 1 0.000 12.075 1.959
269 13 1 0.000 12.075 2.612
270 13 1 0.000 12.075 3.265
271 13 1 0.000 12.075 3.918
272 13 1 0.000 12.075 4.571
273 13 1 0.000 12.075 5.224
274 13 1 0.000 12.075 5.878
275 13 1 0.000 12.075 6.531
276 13 1 0.000 12.075 7.184
277 13 1 0.000 12.075 7.837
278 13 1 0.000 12.075 8.490
279 13 1 0.000 12.075 9.143
280 13 1 0.000 12.075 9.796
281 13 1 0.000 12.075 10.449
282 13 1 0.000 12.075 11.102
283 13 1 0.000 12.075 11.755
284 13 1 0.000 12.075 12.408
285 13 1 0.000 12.075 13.061
286 13 1 0.000 12.075 13.714
287 14 1 5.079 12.075 0.000
288 14 1 5.079 12.075 0.653
289 14 1 5.079 12.075 1.306
290 14 1 5.079 12.075 1.959
291 14 1 5.079 12.075 2.612
292 14 1 5.079 12.075 3.265
293 14 1 5.079 12.075 3.918
294 14 1 5.079 12.075 4.571
295 14 1 5.079 12.075 5.224
296 14 1 5.079 12.075 5.878
297 14 1 5.079 12.075 6.531
298 14 1 5.079 12.075 7.184
299 14 1 5.079 12.075 7.837
300 14 1 5.079 12.075 8.490
301 14 1 5.079 12.075 9.143
302 14 1 5.079 12.075 9.796
303 14 1 5.079 12.075 10.449
304 14 1 5.079 12.075 11.102
305 14 1 5.079 12.075 11.755
306 14 1 5.079 12.075 12.408
307 14 1 5.079 12.075 13.061
308 14 1 5.079 12.075 13.714
309 15 1 10.159 12.075 0.000
310 15 1 10.159 12.075 0.653
311 15 1 10.159 12.075 1.306
312 15 1 10.159 12.075 1.959
313 15 1 10.159 12.075 2.612
314 15 1 10.159 12.075 3.265
315 15 1 10.159 12.075 3.918
316 15 1 10.159 12.075 4.571
317 15 1 10.159 12.075 5.224
318 15 1 10.159 12.075 5.878
319 15 1 10.159 12.075 6.531
320 15 1 10.159 12.075 7.184
321 15 1 10.159 12.075 7.837
322 15 1 10.159 12.075 8.490
323 15 1 10.159 12.075 9.143
324 15 1 10.159 12.075 9.796
325 15 1 10.159 12.075 10.449
326 15 1 10.159 12.075 11.102
327 15 1 10.159 12.075 11.755
328 15 1 10.159 12.075 12.408
329 15 1 10.159 12.075 13.061
330 15 1 10.159 12.075 13.714
331 16 1 15.238 12.075 0.000
332 16 1 15.238 12.075 0.653
333 16 1 15.238 12.075 1.306
334 16 1 15.238 12.075 1.959
335 16 1 15.238 12.075 2.612
336 16 1 15.238 12.075 3.265
337 16 1 15.238 12.075 3.918
338 16 1 15.238 12.075 4.571
339 16 1 15.238 12.075 5.224
340 16 1 15.238 12.075 5.878
341 16 1 15.238 12.075 6.531
342 16 1 15.238 12.075 7.184
343 16 1 15.238 12.075 7.837
344 16 1 15.238 12.075 8.490
345 16 1 15.238 12.075 9.143
346 16 1 15.238 12.075 9.796
347 16 1 15.238 12.075 10.449
348 16 1 15.238 12.075 11.102
349 16 1 15.238 12.075 11.755
350 16 1 15.238 12.075 12.408
351 16 1 15.238 12.075 13.061
352 16 1 15.238 12.075 13.714
353 17 1 20.317 12.075 0.000
354 17 1 20.317 12.075 0.653
355 17 1 20.317 12.075 1.306
356 17 1 20.317 12.075 1.959
357 17 1 20.317 12.075 2.612
358 17 1 20.317 12.075 3.265
359 17 1 20.317 12.075 3.918
360 17 1 20.317 12.075 4.571
361 17 1 20.317 12.075 5.224
362 17 1 20.317 12.075 5.878
363 17 1 20.317 12.075 6.531
364 17 1 20.317 12.075 7.184
365 17 1 20.317 12.075 7.837
366 17 1 20.317 12.075 8.490
367 17 1 20.317 12.075 9.143
368 17 1 20.317 12.075 9.796
369 17 1 20.317 12.075 10.449
370 17 1 20.317 12.075 11.102
371 17 1 20.317 12.075 11.755
372 17 1 20.317 12.075 12.408
373 17 1 20.317 12.075 13.061
374 17 1 20.317 12.075 13.714
375 18 1 25.397 12.075 0.000
376 18 1 25.397 12.075 0.653
377 18 1 25.397 12.075 1.306
378 18 1 25.397 12.075 1.959
379 18 1 25.397 12.075 2.612
380 18 1 25.397 12.075 3.265
381 18 1 25.397 12.075 3.918
382 18 1 25.397 12.075 4.571
383 18 1 25.397 12.075 5.224
384 18 1 25.397 12.075 5.878
385 18 1 25.397 12.075 6.531
386 18 1 25.397 12.075 7.184
387 18 1 25.397 12.075 7.837
388 18 1 25.397 12.075 8.490
389 18 1 25.397 12.075 9.143
390 18 1 25.397 12.075 9.796
391 18 1 25.397 12.075 10.449
392 18 1 25.397 12.075 11.102
393 18 1 25.397 12.075 11.755
394 18 1 25.397 12.075 12.408
395 18 1 25.397 12.075 13.061
396 18 1 25.397 12.075 13.714
397 19 1 0.000 18.113 0.000
398 19 1 0.000 18.113 0.653
399 19 1 0.000 18.113 1.306
400 19 1 0.000 18.113 1.959
401 19 1 0.000 18.113 2.612
402 19 1 0.000 18.113 3.265
403 19 1 0.000 18.113 3.918
404 19 1 0.000 18.113 4.571
405 19 1 0.000 18.113 5.224
406 19 1 0.000 18.113 5.878
407 19 1 0.000 18.113 6.531
408 19 1 0.000 18.113 7.184
409 19 1 0.000 18.113 7.837
410 19 1 0.000 18.113 8.490
411 19 1 0.000 18.113 9.143
412 19 1 0.000 18.113 9.796
413 19 1 0.000 18.113 10.449
414 19 1 0.000 18.113 11.102
415 19 1 0.000 18.113 11.755
416 19 1 0.000 18.113 12.408
417 19 1 0.000 18.113 13.061
418 19 1 0.000 18.113 13.714
419 20 1 5.079 18.113 0.000
420 20 1 5.079 18.113 0.653
421 20 1 5.079 18.113 1.306
422 20 1 5.079 18.113 1.959
423 20 1 5.079 18.113 2.612
424 20 1 5.079 18.113 3.265
425 20 1 5.079 18.113 3.918
426 20 1 5.079 18.113 4.571
427 20 1 5.079 18.113 5.224
428 20 1 5.079 18.113 5.878
429 20 1 5.079 18.113 6.531
430 20 1 5.079 18.113 7.184
431 20 1 5.079 18.113 7.837
432 20 1 5.079 18.113 8.490
433 20 1 5.079 18.113 9.143
434 20 1 5.079 18.113 9.796
435 20 1 5.079 18.113 10.449
436 20 1 5.079 18.113 11.102
437 20 1 5.079 18.113 11.755
438 20 1 5.079 18.113 12.408
439 20 1 5.079 18.113 13.061
440 20 1 5.079 18.113 13.714
441 21 1 10.159 18.113 0.000
442 21 1 10.159 18.113 0.653
443 21 1 10.159 18.113 1.306
444 21 1 10.159 18.113 1.959
445 21 1 10.159 18.113 2.612
446 21 1 10.159 18.113 3.265
447 21 1 10.159 18.113 3.918
448 21 1 10.159 18.113 4.571
449 21 1 10.159 18.113 5.224
450 21 1 10.159 18.113 5.878
451 21 1 10.159 18.113 6.531
452 21 1 10.159 18.113 7.184
453 21 1 10.159 18.113 7.837
454 21 1 10.159 18.113 8.490
455 21 1 10.159 18.113 9.143
456 21 1 10.159 18.113 9.796
457 21 1 10.159 18.113 10.449
458 21 1 10.159 18.113 11.102
459 21 1 10.159 18.113 11.755
460 21 1 10.159 18.113 12.408
461 21 1 10.159 18.113 13.061
462 21 1 10.159 18.113 13.714
463 22 1 15.238 18.113 0.000
464 22 1 15.238 18.113 0.653
465 22 1 15.238 18.113 1.306
466 22 1 15.238 18.113 1.959
467 22 1 15.238 18.113 2.612
468 22 1 15.238 18.113 3.265
469 22 1 15.238 18.113 3.918
470 22 1 15.238 18.113 4.571
471 22 1 15.238 18.113 5.224
472 22 1 15.238 18.113 5.878
473 22 1 15.238 18.113 6.531
474 22 1 15.238 18.113 7.184
475 22 1 15.238 18.113 7.837
476 22 1 15.238 18.113 8.490
477 22 1 15.238 18.113 9.143
478 22 1 15.238 18.113 9.796
479 22 1 15.238 18.113 10.449
480 22 1 15.238 18.113 11.102
481 22 1 15.238 18.113 11.755
482 22 1 15.238 18.113 12.408
483 22 1 15.238 18.113 13.061
484 22 1 15.238 18.113 13.714
485 23 1 20.317 18.113 0.000
486 23 1 20.317 18.113 0.653
487 23 1 20.317 18.113 1.306
488 23 1 20.317 18.113 1.959
489 23 1 20.317 18.113 2.612
490 23 1 20.317 18.113 3.265
491 23 1 20.317 18.113 3.918
492 23 1 20.317 18.113 4.571
493 23 1 20.317 18.113 5.224
494 23 1 20.317 18.113 5.878
495 23 1 20.317 18.113 6.531
496 23 1 20.317 18.113 7.184
497 23 1 20.317 18.113 7.837
498 23 1 20.317 18.113 8.490
499 23 1 20.317 18.113 9.143
500 23 1 20.317 18.113 9.796
501 23 1 20.317 18.113 10.449
502 23 1 20.317 18.113 11.102
503 23 1 20.317 18.113 11.755
504 23 1 20.317 18.113 12.408
505 23 1 20.317 18.113 13.061
506 23 1 20.317 18.113 13.714
507 24 1 25.397 18.113 0.000
508 24 1 25.397 18.113 0.653
509 24 1 25.397 18.113 1.306
510 24 1 25.397 18.113 1.959
511 24 1 25.397 18.113 2.612
512 24 1 25.397 18.113 3.265
513 24 1 25.397 18.113 3.918
514 24 1 25.397 18.113 4.571
515 24 1 25.397 18.113 5.224
516 24 1 25.397 18.113 5.878
517 24 1 25.397 18.113 6.531
518 24 1 25.397 18.113 7.184
519 24 1 25.397 18.113 7.837
520 24 1 25.397 18.113 8.490
521 24 1 25.397 18.113 9.143
522 24 1 25.397 18.113 9.796
523 24 1 25.397 18.113 10.449
524 24 1 25.397 18.113 11.102
525 24 1 25.397 18.113 11.755
526 24 1 25.397 18.113 12.408
527 24 1 25.397 18.113 13.061
528 24 1 25.397 18.113 13.714
529 25 1 0.000 24.151 0.000
530 25 1 0.000 24.151 0.653
531 25 1 0.000 24.151 1.306
532 25 1 0.000 24.151 1.959
533 25 1 0.000 24.151 2.612
534 25 1 0.000 24.151 3.265
535 25 1 0.000 24.151 3.918
536 25 1 0.000 24.151 4.571
537 25 1 0.000 24.151 5.224
538 25 1 0.000 24.151 5.878
539 25 1 0.000 24.151 6.531
540 25 1 0.000 24.151 7.184
541 25 1 0.000 24.151 7.837
542 25 1 0.000 24.151 8.490
543 25 1 0.000 24.151 9.143
544 25 1 0.000 24.151 9.796
545 25 1 0.000 24.151 10.449
546 25 1 0.000 24.151 11.102
547 25 1 0.000 24.151 11.755
548 25 1 0.000 24.151 12.408
549 25 1 0.000 24.151 13.061
550 25 1 0.000 24.151 13.714
551 26 1 5.079 24.151 0.000
552 26 1 5.079 24.151 0.653
553 26 1 5.079 24.151 1.306
554 26 1 5.079 24.151 1.959
555 26 1 5.079 24.151 2.612
556 26 1 5.079 24.151 3.265
557 26 1 5.079 24.151 3.918
558 26 1 5.079 24.151 4.571
559 26 1 5.079 24.151 5.224
560 26 1 5.079 24.151 5.878
561 26 1 5.079 24.151 6.531
562 26 1 5.079 24.151 7.184
563 26 1 5.079 24.151 7.837
564 26 1 5.079 24.151 8.490
565 26 1 5.079 24.151 9.143
566 26 1 5.079 24.151 9.796
567 26 1 5.079 24.151 10.449
568 26 1 5.079 24.151 11.102
569 26 1 5.079 24.151 11.755
570 26 1 5.079 24.151 12.408
571 26 1 5.079 24.151 13.061
572 26 1 5.079 24.151 13.714
573 27 1 10.159 24.151 0.000
574 27 1 10.159 24.151 0.653
575 27 1 10.159 24.151 1.306
576 27 1 10.159 24.151 1.959
577 27 1 10.159 24.151 2.612
578 27 1 10.159 24.151 3.265
579 27 1 10.159 24.151 3.918
580 27 1 10.159 24.151 4.571
581 27 1 10.159 24.151 5.224
582 27 1 10.159 24.151 5.878
583 27 1 10.159 24.151 6.531
584 27 1 10.159 24.151 7.184
585 27 1 10.159 24.151 7.837
586 27 1 10.159 24.151 8.490
587 27 1 10.159 24.151 9.143
588 27 1 10.159 24.151 9.796
589 27 1 10.159 24.151 10.449
590 27 1 10.159 24.151 11.102
591 27 1 10.159 24.151 11.755
592 27 1 10.159 24.151 12.408
593 27 1 10.159 24.151 13.061
594 27 1 10.159 24.151 13.714
595 28 1 15.238 24.151 0.000
596 28 1 15.238 24.151 0.653
597 28 1 15.238 24.151 1.306
598 28 1 15.238 24.151 1.959
599 28 1 15.238 24.151 2.612
600 28 1 15.238 24.151 3.265
601 28 1 15.238 24.151 3.918
602 28 1 15.238 24.151 4.571
603 28 1 15.238 24.151 5.224
604 28 1 15.238 24.151 5.878
605 28 1 15.238 24.151 6.531
606 28 1 15.238 24.151 7.184
607 28 1 15.238 24.151 7.837
608 28 1 15.238 24.151 8.490
609 28 1 15.238 24.151 9.143
610 28 1 15.238 24.151 9.796
611 28 1 15.238 24.151 10.449
612 28 1 15.238 24.151 11.102
613 28 1 15.238 24.151 11.755
614 28 1 15.238 24.151 12.408
615 28 1 15.238 24.151 13.061
616 28 1 15.238 24.151 13.714
617 29 1 20.317 24.151 0.000
618 29 1 20.317 24.151 0.653
619 29 1 20.317 24.151 1.306
620 29 1 20.317 24.151 1.959
621 29 1 20.317 24.151 2.612
622 29 1 20.317 24.151 3.265
623 29 1 20.317 24.151 3.918
624 29 1 20.317 24.151 4.571
625 29 1 20.317 24.151 5.224
626 29 1 20.317 24.151 5.878
627 29 1 20.317 24.151 6.531
628 29 1 20.317 24.151 7.184
629 29 1 20.317 24.151 7.837
630 29 1 20.317 24.151 8.490
631 29 1 20.317 24.151 9.143
632 29 1 20.317 24.151 9.796
633 29 1 20.317 24.151 10.449
634 29 1 20.317 24.151 11.102
635 29 1 20.317 24.151 11.755
636 29 1 20.317 24.151 12.408
637 29 1 20.317 24.151 13.061
638 29 1 20.317 24.151 13.714
639 30 1 25.397 24.151 0.000
640 30 1 25.397 24.151 0.653
641 30 1 25.397 24.151 1.306
642 30 1 25.397 24.151 1.959
643 30 1 25.397 24.151 2.612
644 30 1 25.397 24.151 3.265
645 30 1 25.397 24.151 3.918
646 30 1 25.397 24.151 4.571
647 30 1 25.397 24.151 5.224
648 30 1 25.397 24.151 5.878
649 30 1 25.397 24.151 6.531
650 30 1 25.397 24.151 7.184
651 30 1 25.397 24.151 7.837
652 30 1 25.397 24.151 8.490
653 30 1 25.397 24.151 9.143
654 30 1 25.397 24.151 9.796
655 30 1 25.397 24.151 10.449
656 30 1 25.397 24.151 11.102
657 30 1 25.397 24.151 11.755
658 30 1 25.397 24.151 12.408
659 30 1 25.397 24.151 13.061
660 30 1 25.397 24.151 13.714
661 31 2 2.540 3.019 16.980
662 31 2 2.540 3.019 17.633
663 31 2 2.540 3.019 18.286
664 31 2 2.540 3.019 18.939
665 31 2 2.540 3.019 19.592
666 31 2 2.540 3.019 20.245
667 31 2 2.540 3.019 20.898
668 31 2 2.540 3.019 21.551
669 31 2 2.540 3.019 22.204
670 31 2 2.540 3.019 22.857
671 31 2 2.540 3.019 23.510
672 31 2 2.540 3.019 24.163
673 31 2 2.540 3.019 24.816
674 31 2 2.540 3.019 25.469
675 31 2 2.540 3.019 26.122
676 31 2 2.540 3.019 26.776
677 31 2 2.540 3.019 27.429
678 31 2 2.540 3.019 28.082
679 31 2 2.540 3.019 28.735
680 31 2 2.540 3.019 29.388
681 31 2 2.540 3.019 30.041
682 31 2 2.540 3.019 30.694
683 32 2 7.619 3.019 16.980
684 32 2 7.619 3.019 17.633
685 32 2 7.619 3.019 18.286
686 32 2 7.619 3.019 18.939
687 32 2 7.619 3.019 19.592
688 32 2 7.619 3.019 20.245
689 32 2 7.619 3.019 20.898
690 32 2 7.619 3.019 21.551
691 32 2 7.619 3.019 22.204
692 32 2 7.619 3.019 22.857
693 32 2 7.619 3.019 23.510
694 32 2 7.619 3.019 24.163
695 32 2 7.619 3.019 24.816
696 32 2 7.619 3.019 25.469
697 32 2 7.619 3.019 26.122
698 32 2 7.619 3.019 26.776
699 32 2 7.619 3.019 27.429
700 32 2 7.619 3.019 28.082
701 32 2 7.619 3.019 28.735
702 32 2 7.619 3.019 29.388
703 32 2 7.619 3.019 30.041
704 32 2 7.619 3.019 30.694
705 33 2 12.698 3.019 16.980
706 33 2 12.698 3.019 17.633
707 33 2 12.698 3.019 18.286
708 33 2 12.698 3.019 18.939
709 33 2 12.698 3.019 19.592
710 33 2 12.698 3.019 20.245
711 33 2 12.698 3.019 20.898
712 33 2 12.698 3.019 21.551
713 33 2 12.698 3.019 22.204
714 33 2 12.698 3.019 22.857
715 33 2 12.698 3.019 23.510
716 33 2 12.698 3.019 24.163
717 33 2 12.698 3.019 24.816
718 33 2 12.698 3.019 25.469
719 33 2 12.698 3.019 26.122
720 33 2 12.698 3.019 26.776
721 33 2 12.698 3.019 27.429
722 33 2 12.698 3.019 28.082
723 33 2 12.698 3.019 28.735
724 33 2 12.698 3.019 29.388
725 33 2 12.698 3.019 30.041
726 33 2 12.698 3.019 30.694
727 34 2 17.778 3.019 16.980
728 34 2 17.778 3.019 17.633
729 34 2 17.778 3.019 18.286
730 34 2 17.778 3.019 18.939
731 34 2 17.778 3.019 19.592
732 34 2 17.778 3.019 20.245
733 34 2 17.778 3.019 20.898
734 34 2 17.778 3.019 21.551
735 34 2 17.778 3.019 22.204
736 34 2 17.778 3.019 22.857
737 34 2 17.778 3.019 23.510
738 34 2 17.778 3.019 24.163
739 34 2 17.778 3.019 24.816
740 34 2 17.778 3.019 25.469
741 34 2 17.778 3.019 26.122
742 34 2 17.778 3.019 26.776
743 34 2 17.778 3.019 27.429
744 34 2 17.778 3.019 28.082
745 34 2 17.778 3.019 28.735
746 34 2 17.778 3.019 29.388
747 34 2 17.778 3.019 30.041
748 34 2 17.778 3.019 30.694
749 35 2 22.857 3.019 16.980
750 35 2 22.857 3.019 17.633
751 35 2 22.857 3.019 18.286
752 35 2 22.857 3.019 18.939
753 35 2 22.857 3.019 19.592
754 35 2 22.857 3.019 20.245
755 35 2 22.857 3.019 20.898
756 35 2 22.857 3.019 21.551
757 35 2 22.857 3.019 22.204
758 35 2 22.857 3.019 22.857
759 35 2 22.857 3.019 23.510
760 35 2 22.857 3.019 24.163
761 35 2 22.857 3.019 24.816
762 35 2 22.857 3.019 25.469
763 35 2 22.857 3.019 26.122
764 35 2 22.857 3.019 26.776
765 35 2 22.857 3.019 27.429
766 35 2 22.857 3.019 28.082
767 35 2 22.857 3.019 28.735
768 35 2 22.857 3.019 29.388
769 35 2 22.857 3.019 30.041
770 35 2 22.857 3.019 30.694
771 36 2 27.937 3.019 16.980
772 36 2 27.937 3.019 17.633
773 36 2 27.937 3.019 18.286
774 36 2 27.937 3.019 18.939
775 36 2 27.937 3.019 19.592
776 36 2 27.937 3.019 20.245
777 36 2 27.937 3.019 20.898
778 36 2 27.937 3.019 21.551
779 36 2 27.937 3.019 22.204
780 36 2 27.937 3.019 22.857
781 36 2 27.937 3.019 23.510
782 36 2 27.937 3.019 24.163
783 36 2 27.937 3.019 24.816
784 36 2 27.937 3.019 25.469
785 36 2 27.937 3.019 26.122
786 36 2 27.937 3.019 26.776
787 36 2 27.937 3.019 27.429
788 36 2 27.937 3.019 28.082
789 36 2 27.937 3.019 28.735
790 36 2 27.937 3.019 29.388
791 36 2 27.937 3.019 30.041
792 36 2 27.937 3.019 30.694
793 37 2 2.540 9.057 16.980
794 37 2 2.540 9.057 17.633
795 37 2 2.540 9.057 18.286
796 37 2 2.540 9.057 18.939
797 37 2 2.540 9.057 19.592
798 37 2 2.540 9.057 20.245
799 37 2 2.540 9.057 20.898
800 37 2 2.540 9.057 21.551
801 37 2 2.540 9.057 22.204
802 37 2 2.540 9.057 22.857
803 37 2 2.540 9.057 23.510
804 37 2 2.540 9.057 24.163
805 37 2 2.540 9.057 24.816
806 37 2 2.540 9.057 25.469
807 37 2 2.540 9.057 26.122
808 37 2 2.540 9.057 26.776
809 37 2 2.540 9.057 27.429
810 37 2 2.540 9.057 28.082
811 37 2 2.540 9.057 28.735
812 37 2 2.540 9.057 29.388
813 37 2 2.540 9.057 30.041
814 37 2 2.540 9.057 30.694
815 38 2 7.619 9.057 16.980
816 38 2 7.619 9.057 17.633
817 38 2 7.619 9.057 18.286
818 38 2 7.619 9.057 18.939
819 38 2 7.619 9.057 19.592
820 38 2 7.619 9.057 20.245
821 38 2 7.619 9.057 20.898
822 38 2 7.619 9.057 21.551
823 38 2 7.619 9.057 22.204
824 38 2 7.619 9.057 22.857
825 38 2 7.619 9.057 23.510
826 38 2 7.619 9.057 24.163
827 38 2 7.619 9.057 24.816
828 38 2 7.619 9.057 25.469
829 38 2 7.619 9.057 26.122
830 38 2 7.619 9.057 26.776
831 38 2 7.619 9.057 27.429
832 38 2 7.619 9.057 28.082
833 38 2 7.619 9.057 28.735
834 38 2 7.619 9.057 29.388
835 38 2 7.619 9.057 30.041
836 38 2 7.619 9.057 30.694
837 39 2 12.698 9.057 16.980
838 39 2 12.698 9.057 17.633
839 39 2 12.698 9.057 18.286
840 39 2 12.698 9.057 18.939
841 39 2 12.698 9.057 19.592
842 39 2 12.698 9.057 20.245
843 39 2 12.698 9.057 20.898
844 39 2 12.698 9.057 21.551
845 39 2 12.698 9.057 22.204
846 39 2 12.698 9.057 22.857
847 39 2 12.698 9.057 23.510
848 39 2 12.698 9.057 24.163
849 39 2 12.698 9.057 24.816
850 39 2 12.698 9.057 25.469
851 39 2 12.698 9.057 26.122
852 39 2 12.698 9.057 26.776
853 39 2 12.698 9.057 27.429
854 39 2 12.698 9.057 28.082
855 39 2 12.698 9.057 28.735
856 39 2 12.698 9.057 29.388
857 39 2 12.698 9.057 30.041
858 39 2 12.698 9.057 30.694
859 40 2 17.778 9.057 16.980
860 40 2 17.778 9.057 17.633
861 40 2 17.778 9.057 18.286
862 40 2 17.778 9.057 18.939
863 40 2 17.778 9.057 19.592
864 40 2 17.778 9.057 20.245
865 40 2 17.778 9.057 20.898
866 40 2 17.778 9.057 21.551
867 40 2 17.778 9.057 22.204
868 40 2 17.778 9.057 22.857
869 40 2 17.778 9.057 23.510
870 40 2 17.778 9.057 24.163
871 40 2 17.778 9.057 24.816
872 40 2 17.778 9.057 25.469
873 40 2 17.778 9.057 26.122
874 40 2 17.778 9.057 26.776
875 40 2 17.778 9.057 27.429
876 40 2 17.778 9.057 28.082
877 40 2 17.778 9.057 28.735
878 40 2 17.778 9.057 29.388
879 40 2 17.778 9.057 30.041
880 40 2 17.778 9.057 30.694
881 41 2 22.857 9.057 16.980
882 41 2 22.857 9.057 17.633
883 41 2 22.857 9.057 18.286
884 41 2 22.857 9.057 18.939
885 41 2 22.857 9.057 19.592
886 41 2 22.857 9.057 20.245
887 41 2 22.857 9.057 20.898
888 41 2 22.857 9.057 21.551
889 41 2 22.857 9.057 22.204
890 41 2 22.857 9.057 22.857
891 41 2 22.857 9.057 23.510
892 41 2 22.857 9.057 24.163
893 41 2 22.857 9.057 24.816
894 41 2 22.857 9.057 25.469
895 41 2 22.857 9.057 26.122
896 41 2 22.857 9.057 26.776
897 41 2 22.857 9.057 27.429
898 41 2 22.857 9.057 28.082
899 41 2 22.857 9.057 28.735
900 41 2 22.857 9.057 29.388
901 41 2 22.857 9.057 30.041
902 41 2 22.857 9.057 30.694
903 42 2 27.937 9.057 16.980
904 42 2 27.937 9.057 17.633
905 42 2 27.937 9.057 18.286
906 42 2 27.937 9.057 18.939
907 42 2 27.937 9.057 19.592
908 42 2 27.937 9.057 20.245
909 42 2 27.937 9.057 20.898
910 42 2 27.937 9.057 21.551
911 42 2 27.937 9.057 22.204
912 42 2 27.937 9.057 22.857
913 42 2 27.937 9.057 23.510
914 42 2 27.937 9.057 24.163
915 42 2 27.937 9.057 24.816
916 42 2 27.937 9.057 25.469
917 42 2 27.937 9.057 26.122
918 42 2 27.937 9.057 26.776
919 42 2 27.937 9.057 27.429
920 42 2 27.937 9.057 28.082
921 42 2 27.937 9.057 28.735
922 42 2 27.937 9.057 29.388
923 42 2 27.937 9.057 30.041
924 42 2 27.937 9.057 30.694
925 43 2 2.540 15.094 16.980
926 43 2 2.540 15.094 17.633
927 43 2 2.540 15.094 18.286
928 43 2 2.540 15.094 18.939
929 43 2 2.540 15.094 19.592
930 43 2 2.540 15.094 20.245
931 43 2 2.540 15.094 20.898
932 43 2 2.540 15.094 21.551
933 43 2 2.540 15.094 22.204
934 43 2 2.540 15.094 22.857
935 43 2 2.540 15.094 23.510
936 43 2 2.540 15.094 24.163
937 43 2 2.540 15.094 24.816
938 43 2 2.540 15.094 25.469
939 43 2 2.540 15.094 26.122
940 43 2 2.540 15.094 26.776
941 43 2 2.540 15.094 27.429
942 43 2 2.540 15.094 28.082
943 43 2 2.540 15.094 28.735
944 43 2 2.540 15.094 29.388
945 43 2 2.540 15.094 30.041
946 43 2 2.540 15.094 30.694
947 44 2 7.619 15.094 16.980
948 44 2 7.619 15.094 17.633
949 44 2 7.619 15.094 18.286
950 44 2 7.619 15.094 18.939
951 44 2 7.619 15.094 19.592
952 44 2 7.619 15.094 20.245
953 44 2 7.619 15.094 20.898
954 44 2 7.619 15.094 21.551
955 44 2 7.619 15.094 22.204
956 44 2 7.619 15.094 22.857
957 44 2 7.619 15.094 23.510
958 44 2 7.619 15.094 24.163
959 44 2 7.619 15.094 24.816
960 44 2 7.619 15.094 25.469
961 44 2 7.619 15.094 26.122
962 44 2 7.619 15.094 26.776
963 44 2 7.619 15.094 27.429
964 44 2 7.619 15.094 28.082
965 44 2 7.619 15.094 28.735
966 44 2 7.619 15.094 29.388
967 44 2 7.619 15.094 30.041
968 44 2 7.619 15.094 30.694
969 45 2 12.698 15.094 16.980
970 45 2 12.698 15.094 17.633
971 45 2 12.698 15.094 18.286
972 45 2 12.698 15.094 18.939
973 45 2 12.698 15.094 19.592
974 45 2 12.698 15.094 20.245
975 45 2 12.698 15.094 20.898
976 45 2 12.698 15.094 21.551
977 45 2 12.698 15.094 22.204
978 45 2 12.698 15.094 22.857
979 45 2 12.698 15.094 23.510
980 45 2 12.698 15.094 24.163
981 45 2 12.698 15.094 24.816
982 45 2 12.698 15.094 25.469
983 45 2 12.698 15.094 26.122
984 45 2 12.698 15.094 26.776
985 45 2 12.698 15.094 27.429
986 45 2 12.698 15.094 28.082
987 45 2 12.698 15.094 28.735
988 45 2 12.698 15.094 29.388
989 45 2 12.698 15.094 30.041
990 45 2 12.698 15.094 30.694
991 46 2 17.778 15.094 16.980
992 46 2 17.778 15.094 17.633
993 46 2 17.778 15.094 18.286
994 46 2 17.778 15.094 18.939
995 46 2 17.778 15.094 19.592
996 46 2 17.778 15.094 20.245
997 46 2 17.778 15.094 20.898
998 46 2 17.778 15.094 21.551
999 46 2 17.778 15.094 22.204
1000 46 2 17.778 15.094 22.857
1001 46 2 17.778 15.094 23.510
1002 46 2 17.778 15.094 24.163
1003 46 2 17.778 15.094 24.816
1004 46 2 17.778 15.094 25.469
1005 46 2 17.778 15.094 26.122
1006 46 2 17.778 15.094 26.776
1007 46 2 17.778 15.094 27.429
1008 46 2 17.778 15.094 28.082
1009 46 2 17.778 15.094 28.735
1010 46 2 17.778 15.094 29.388
1011 46 2 17.778 15.094 30.041
1012 46 2 17.778 15.094 30.694
1013 47 2 22.857 15.094 16.980
1014 47 2 22.857 15.094 17.633
1015 47 2 22.857 15.094 18.286
1016 47 2 22.857 15.094 18.939
1017 47 2 22.857 15.094 19.592
1018 47 2 22.857 15.094 20.245
1019 47 2 22.857 15.094 20.898
1020 47 2 22.857 15.094 21.551
1021 47 2 22.857 15.094 22.204
1022 47 2 22.857 15.094 22.857
1023 47 2 22.857 15.094 23.510
1024 47 2 22.857 15.094 24.163
1025 47 2 22.857 15.094 24.816
1026 47 2 22.857 15.094 25.469
1027 47 2 22.857 15.094 26.122
1028 47 2 22.857 15.094 26.776
1029 47 2 22.857 15.094 27.429
1030 47 2 22.857 15.094 28.082
1031 47 2 22.857 15.094 28.735
1032 47 2 22.857 15.094 29.388
1033 47 2 22.857 15.094 30.041
1034 47 2 22.857 15.094 30.694
1035 48 2 27.937 15.094 16.980
1036 48 2 27.937 15.094 17.633
1037 48 2 27.937 15.094 18.286
1038 48 2 27.937 15.094 18.939
1039 48 2 27.937 15.094 19.592
1040 48 2 27.937 15.094 20.245
1041 48 2 27.937 15.094 20.898
1042 48 2 27.937 15.094 21.551
1043 48 2 27.937 15.094 22.204
1044 48 2 27.937 15.094 22.857
1045 48 2 27.937 15.094 23.510
1046 48 2 27.937 15.094 24.163
1047 48 2 27.937 15.094 24.816