ITEM: TIMESTEP
1000
ITEM: NUMBER OF ATOMS
1920
ITEM: BOX BOUNDS pp pp pp
0.0000000000000000e+00 3.2000000000000000e+01
0.0000000000000000e+00 3.2000000000000000e+01
0.0000000000000000e+00 3.2000000000000000e+01
ITEM: ATOMS id type xu yu zu
1 1 -0.198887 -1.45417 5.73345
2 1 0.414556 -1.94872 5.17571
3 1 -0.469145 -1.85655 4.79254
4 1 -1.13168 -1.22365 5.0591
5 1 -0.517247 -0.600174 5.31417
6 1 -0.646664 0.215953 4.67787
7 1 -0.116019 0.419442 5.37354
8 1 0.878433 0.0299338 5.18309
9 1 1.29425 -0.121734 5.98071
10 1 1.64826 -0.918096 6.40013
11 1 0.944616 -1.56254 6.20594
12 1 0.0550844 -1.68922 6.77798
13 1 -0.680772 -1.02633 7.03686
14 1 -0.532336 0.00795343 6.93402
15 1 -0.461495 0.686668 6.25829
16 1 0.179557 1.40507 6.59341
17 1 0.988208 0.810988 7.00016
18 1 1.26651 -0.0632643 7.16082
19 1 0.37347 -0.336682 7.3251
20 1 -0.225121 0.0518473 8.15302
21 1 -0.143813 -0.826035 8.34213
22 1 -0.432782 -0.741604 9.23389
23 1 0.470303 -1.07851 9.4094
24 1 0.591137 -0.263492 8.87251
25 1 1.28934 -0.784008 8.85734
26 1 1.06729 -0.282893 9.68054
27 1 0.759709 0.702203 9.63278
28 1 -0.184865 0.548262 9.35994
29 1 -0.234761 1.57069 8.89779
30 1 0.803734 1.79203 9.11634
31 1 1.45014 2.48632 9.0116
32 1 1.38135 2.31582 9.94943
33 1 4.95585 -0.710549 5.0401
34 1 4.11493 -0.302715 5.35182
35 1 3.38556 -0.00874269 5.92639
36 1 4.19411 0.625951 5.74626
37 1 5.26421 0.722983 5.66437
38 1 5.75809 0.988471 4.85192
39 1 6.55221 0.537979 5.17669
40 1 6.80036 -0.0559166 5.86562
41 1 6.95778 0.876638 6.19303
42 1 5.95361 0.760661 6.63651
43 1 5.07067 0.240254 6.51908
44 1 4.55714 -0.584625 6.3629
45 1 4.54437 -1.53844 6.02432
46 1 5.45977 -1.14803 6.38393
47 1 5.67746 -0.790212 7.33248
48 1 5.34379 0.165402 7.66304
49 1 5.32281 1.18975 7.18085
50 1 5.32935 2.05999 7.36195
51 1 4.38562 2.29973 7.85083
52 1 4.19886 1.61683 8.53646
53 1 4.19281 0.677522 8.41032
54 1 4.70136 -0.220749 8.33811
55 1 4.36976 -0.951972 7.73438
56 1 3.38817 -1.22746 7.82322
57 1 4.06 -1.25814 8.58943
58 1 3.94985 -0.702925 9.33641
59 1 4.97563 -1.12374 9.40578
60 1 5.29373 -0.274011 9.11648
61 1 5.71445 -0.718821 9.89728
62 1 6.54274 -0.898995 9.372
63 1 6.29603 -1.7931 8.90923
64 1 5.37729 -1.94981 8.55005
65 1 10.6625 0.466483 3.33812
66 1 11.0946 0.672529 4.17876
67 1 11.0604 0.83367 5.12437
68 1 10.6148 0.144596 5.60883
69 1 10.7186 -0.229172 4.68782
70 1 11.5784 -0.124299 5.03403
71 1 11.7195 -1.14898 5.51554
72 1 11.3826 -0.417417 6.10394
73 1 10.8032 -1.07087 5.96694
74 1 9.96573 -0.78597 5.26648
75 1 9.32167 -0.0893552 5.28234
76 1 9.07864 0.852071 5.32442
77 1 9.52313 0.927491 6.20127
78 1 10.5369 1.20939 6.27673
79 1 10.3349 0.301992 6.40677
80 1 10.5154 -0.521836 6.92075
81 1 9.70185 -0.495287 6.45509
82 1 9.26808 -0.291261 7.31064
83 1 9.60222 0.585604 7.14222
84 1 10.645 0.793942 7.3849
85 1 10.249 -0.0712616 7.71594
86 1 10.0085 -0.934698 7.8635
87 1 10.4309 -0.633602 8.72069
88 1 9.52679 -0.197895 8.78289
89 1 9.70589 0.569558 8.16385
90 1 9.9539 0.657049 9.17683
91 1 9.51764 0.0337594 9.76223
92 1 9.03737 -0.710599 10.2577
93 1 9.91211 -1.28656 10.1863
94 1 10.283 -0.485302 10.665
95 1 9.24783 -0.359979 11.0886
96 1 9.55389 0.508155 10.7151
97 1 15.9113 -2.01917 5.4758
98 1 15.9727 -1.13355 4.98703
99 1 15.7556 -0.880172 5.92858
100 1 15.4511 -1.65088 6.3413
101 1 14.9126 -1.51848 5.60883
102 1 14.2598 -0.945617 5.17066
103 1 14.7914 -0.180957 5.25499
104 1 15.6323 0.0484973 5.63501
105 1 16.276 -0.0340483 6.27396
106 1 16.3989 -0.880425 6.79608
107 1 16.065 -0.432589 7.57279
108 1 15.3235 -0.788227 6.83718
109 1 14.6851 -0.402851 6.23226
110 1 14.0538 0.241888 5.90891
111 1 14.1944 1.13861 5.84372
112 1 14.0555 1.65298 6.66105
113 1 15.0237 1.62641 6.53457
114 1 15.751 1.34523 7.03324
115 1 16.5774 0.882165 7.18095
116 1 16.8328 0.580332 8.06373
117 1 17.0242 -0.182356 8.76803
118 1 16.8009 -1.06994 8.53024
119 1 15.8254 -0.457676 8.5492
120 1 15.0809 -0.494174 7.93937
121 1 14.6621 -1.31839 8.18125
122 1 14.4583 -0.698683 9.01966
123 1 14.7915 0.219401 9.07843
124 1 14.1482 0.975994 8.87658
125 1 14.4802 1.16344 8.01755
126 1 14.7074 1.89482 8.60033
127 1 15.5555 2.04787 9.011
128 1 14.9578 2.71537 9.29641
129 1 20.7404 0.564733 4.99856
130 1 21.161 0.604154 5.83277
131 1 21.5083 -0.26481 5.79339
132 1 22.2097 0.457099 5.95517
133 1 21.8937 1.34134 5.73614
134 1 21.6506 1.39032 6.65126
135 1 20.9892 1.97251 6.87143
136 1 20.4266 1.7683 6.14867
137 1 19.6904 1.27444 6.06098
138 1 20.3171 0.532016 6.22669
139 1 21.071 0.116211 6.65735
140 1 21.9224 0.212964 6.88895
141 1 22.0081 -0.793405 7.191
142 1 21.0379 -1.20072 7.7911
143 1 20.1997 -1.67774 7.67113
144 1 19.4885 -1.74915 7.13011
145 1 18.9297 -0.916524 7.08203
146 1 19.5442 -0.228052 6.74607
147 1 20.2019 -0.290083 7.32053
148 1 20.6299 0.484889 7.56194
149 1 21.4224 1.1873 8.16995
150 1 22.0868 0.380607 8.26077
151 1 21.2158 0.10081 8.36894
152 1 20.9137 0.640057 9.16769
153 1 20.4413 1.40003 8.59579
154 1 20.0774 0.48279 8.63968
155 1 19.2751 0.238967 8.1991
156 1 19.543 -0.660368 8.32914
157 1 18.6415 -0.527455 8.31735
158 1 18.1613 -1.08206 8.95202
159 1 19.052 -0.88779 9.23429
160 1 19.9514 -1.06494 9.6017
161 1 25.875 -0.972349 2.09728
162 1 26.0359 -0.479033 3.02129
163 1 25.3748 0.322433 3.20808
164 1 26.2868 0.370809 3.60103
165 1 26.3154 1.02506 4.31475
166 1 26.425 0.213963 4.58588
167 1 26.2786 0.812859 5.33998
168 1 25.3695 0.583335 5.54196
169 1 25.6491 -0.356262 5.71269
170 1 26.6191 -0.597518 5.62369
171 1 26.4343 -1.3524 6.04408
172 1 25.718 -1.55873 6.85893
173 1 24.8403 -1.16216 6.65274
174 1 24.2652 -1.40853 5.62805
175 1 24.5866 -0.481776 5.88554
176 1 24.8523 -0.161706 6.77666
177 1 25.9269 0.0564723 6.66669
178 1 25.6871 -0.663847 7.28949
179 1 24.8508 -0.553869 7.90541
180 1 24.741 0.331606 8.14642
181 1 25.05 1.20753 7.63289
182 1 25.7621 0.798635 8.10633
183 1 26.5548 0.982061 7.55359
184 1 26.4678 0.119477 7.75461
185 1 25.9688 -0.398946 8.46826
186 1 25.4847 -0.276024 9.38758
187 1 25.5896 0.626264 9.18804
188 1 26.2864 0.485897 9.7544
189 1 25.4893 0.692842 10.3565
190 1 24.6058 0.427485 10.823
191 1 24.692 -0.0652533 10.0407
192 1 24.3353 -0.491972 9.07294
193 1 0.184352 7.06912 4.51034
194 1 1.218 6.91591 4.50274
195 1 1.16166 7.6245 5.10916
196 1 0.775924 7.51068 6.13155
197 1 1.07981 6.61067 5.90672
198 1 0.217187 6.80407 5.77001
199 1 -0.650131 6.83878 5.35695
200 1 -0.0800872 6.04931 4.91672
201 1 -0.259633 5.11363 5.15994
202 1 0.29883 5.6987 5.64955
203 1 -0.659682 5.86594 5.78951
204 1 -0.992764 6.01729 6.75369
205 1 -1.00354 6.9008 7.25945
206 1 -0.0827274 6.7967 6.92952
207 1 0.811847 7.00997 7.078
208 1 0.602594 6.14851 6.73299
209 1 1.28936 5.91663 7.41643
210 1 0.928834 5.14905 7.02025
211 1 -0.0323146 5.26713 6.74669
212 1 -0.706727 5.62012 7.63715
213 1 0.0737433 6.0289 7.85323
214 1 -0.335058 6.96827 7.90524
215 1 -0.771425 7.51859 8.56107
216 1 0.24393 7.18611 8.78133
217 1 0.0935793 6.42684 9.30137
218 1 0.986071 5.74363 9.55698
219 1 0.793581 4.84991 9.55539
220 1 -0.0733971 4.61804 9.12919
221 1 -0.0768456 4.54552 10.128
222 1 -0.747391 5.16921 10.3933
223 1 -1.0893 4.67285 9.64398
224 1 -1.65919 5.05865 10.3441
225 1 2.36598 4.78855 4.02963
226 1 3.29966 4.90014 3.73064
227 1 3.60699 5.18006 4.60016
228 1 4.40127 4.85291 5.16187
229 1 5.26536 4.59529 5.60793
230 1 5.97254 4.89984 6.20085
231 1 6.4365 5.71674 6.23359
232 1 6.05788 6.06629 5.3957
233 1 5.32653 6.8342 5.72228
234 1 4.60346 7.08808 6.21392
235 1 3.70481 6.94656 6.04196
236 1 3.02406 6.4262 6.23878
237 1 2.93246 6.62732 7.148
238 1 3.729 6.00578 6.74105
239 1 4.45558 5.46936 7.06131
240 1 5.37543 5.89224 6.8946
241 1 5.49073 4.86246 7.22735
242 1 6.54826 5.31569 7.49146
243 1 6.17638 6.15235 7.71506
244 1 5.68092 6.9071 7.41398
245 1 4.81971 6.77304 7.17713
246 1 4.72085 6.923 8.12122
247 1 5.4594 6.45533 8.54291
248 1 5.84113 5.62436 8.70694
249 1 5.02549 5.46358 9.19292
250 1 4.83986 6.48274 9.38819
251 1 4.91513 7.27656 9.85984
252 1 4.67851 8.14361 9.50383
253 1 5.67819 8.07747 9.23395
254 1 5.91119 7.20552 9.23882
255 1 5.78307 7.3828 10.17
256 1 5.9062 6.4231 10.2938
257 1 12.0659 5.40172 6.73303
258 1 11.7602 4.59099 6.24515
259 1 11.5113 5.12657 5.37137
260 1 11.3664 4.76409 4.42115
261 1 11.8242 5.14573 3.76797
262 1 11.0684 5.75804 3.40858
263 1 10.0439 5.66094 3.56186
264 1 9.06271 5.97733 3.64447
265 1 9.48928 5.8408 4.45395
266 1 9.45024 6.15481 5.35225
267 1 9.48135 7.05791 5.71755
268 1 9.72449 6.51452 6.52671
269 1 10.6531 6.54907 6.38628
270 1 10.8848 5.78897 6.89284
271 1 10.6844 4.85631 7.1506
272 1 10.1461 5.53718 7.67268
273 1 9.45832 6.3942 7.56011
274 1 9.95398 7.28589 7.34824
275 1 9.43966 7.98911 7.75907
276 1 9.1553 7.30258 8.4027
277 1 10.0901 7.08113 8.35887
278 1 10.7436 6.44324 8.10461
279 1 11.1858 5.85596 8.78746
280 1 10.2961 5.58797 8.58387
281 1 9.57582 5.0366 8.44137
282 1 9.29839 4.79746 9.28959
283 1 9.11178 5.51647 9.8482
284 1 9.17253 6.22678 9.1428
285 1 9.44529 7.12516 9.43155
286 1 9.93233 7.62753 10.0565
287 1 9.34892 8.43996 9.88421
288 1 8.73856 9.15736 10.0413
289 1 15.5313 5.20401 5.02369
290 1 15.2515 4.37509 5.40161
291 1 14.977 3.46195 5.54
292 1 14.266 4.08288 6.03321
293 1 13.335 4.2211 5.87705
294 1 13.638 5.11937 6.45307
295 1 14.5851 5.10723 6.27315
296 1 15.569 4.68152 6.39682
297 1 16.5141 4.71487 6.43923
298 1 16.5641 5.2714 5.6947
299 1 16.8743 5.95896 5.14152
300 1 16.1563 6.48929 4.87593
301 1 15.326 6.245 5.2574
302 1 15.3983 6.86515 6.03353
303 1 15.2947 5.95661 6.28667
304 1 14.4435 6.34043 6.59992
305 1 14.4528 5.42297 7.31364
306 1 13.8664 5.44642 8.00991
307 1 13.7822 6.25657 7.48219
308 1 14.6896 6.61819 7.73586
309 1 15.3826 6.62339 7.03551
310 1 16.1416 6.31443 7.52403
311 1 15.6257 5.5843 7.91548
312 1 15.4898 5.2231 8.96707
313 1 15.8764 4.40177 8.9955
314 1 16.3076 4.21227 8.12061
315 1 16.5219 5.08744 8.44008
316 1 16.199 5.97904 8.76666
317 1 15.3992 6.50998 8.42622
318 1 15.3264 7.14033 9.12341
319 1 14.8905 7.4799 8.33138
320 1 14.7406 8.40095 8.67184
321 1 19.9342 5.44521 3.61785
322 1 19.3712 5.70934 4.35212
323 1 18.9424 6.51838 4.03855
324 1 19.869 6.84775 4.1457
325 1 20.6714 7.36222 4.41384
326 1 20.5821 6.33833 4.62731
327 1 20.3447 5.73005 5.27841
328 1 19.6509 5.13345 5.12116
329 1 19.719 4.66749 5.85974
330 1 20.5371 5.08243 6.05126
331 1 20.0512 5.93595 6.56206
332 1 20.4077 6.61952 6.11779
333 1 21.3551 6.88326 6.31983
334 1 21.6311 6.6062 7.22732
335 1 20.8113 6.37192 7.10635
336 1 19.9358 6.05839 7.48921
337 1 19.2867 5.56773 7.17122
338 1 19.9249 5.00324 6.79341
339 1 20.6376 5.37425 7.29231
340 1 20.4723 5.42273 8.17898
341 1 19.5556 5.13576 8.42664
342 1 19.4214 6.07334 8.50486
343 1 20.1226 6.7827 8.22944
344 1 20.5284 7.25839 9.02065
345 1 21.1327 6.78944 9.62732
346 1 20.8317 5.85476 9.40509
347 1 21.1707 5.06467 8.96579
348 1 21.5174 4.13744 8.62427
349 1 22.168 4.50633 9.25857
350 1 22.0248 5.42699 9.58556
351 1 21.1974 5.49412 10.1801
352 1 20.5483 5.85296 10.9433
353 1 23.5891 6.29781 4.27963
354 1 23.2822 6.1675 5.20327
355 1 24.0459 5.9294 5.76041
356 1 23.9037 5.339 5.07488
357 1 23.9759 4.91329 5.99055
358 1 24.7823 4.54432 5.47133
359 1 24.9979 5.46166 5.24882
360 1 25.0884 6.30686 5.70282
361 1 25.2211 6.36581 6.69761
362 1 24.4157 5.97473 7.12292
363 1 24.8678 5.33207 6.60463
364 1 25.7286 5.70995 6.15795
365 1 26.3055 5.36867 6.78959
366 1 27.1324 5.96582 7.03908
367 1 26.477 6.27996 6.4519
368 1 25.9899 6.93513 5.95075
369 1 26.43 7.16556 6.71447
370 1 26.1328 6.54587 7.4861
371 1 25.4155 5.63058 7.55967
372 1 24.7329 4.81207 7.61687
373 1 25.237 5.08409 8.44839
374 1 25.4594 4.04661 8.62927
375 1 25.2132 4.78813 9.5712
376 1 25.5068 5.70309 9.40444
377 1 25.3671 6.25849 8.70383
378 1 25.1857 7.13026 8.25634
379 1 26.0428 7.15671 8.66462
380 1 26.0263 7.68824 7.83605
381 1 27.0288 7.31083 7.86834
382 1 26.9372 6.31801 8.23375
383 1 26.7278 6.21957 9.22875
384 1 26.5996 5.46468 9.90618
385 1 2.04856 10.5896 4.12851
386 1 2.02916 11.4536 4.44337
387 1 1.87628 12.0456 5.20331
388 1 1.3197 12.2543 5.84898
389 1 0.663714 12.8574 5.65433
390 1 -0.140789 12.69 5.00014
391 1 0.814721 12.4366 4.60186
392 1 0.447191 11.7848 5.17298
393 1 -0.224238 11.1232 5.30065
394 1 -1.01946 11.621 5.47599
395 1 -1.24625 12.3335 5.99867
396 1 -0.438271 12.3887 6.48643
397 1 0.504646 12.3396 6.6457
398 1 0.657437 13.291 6.79793
399 1 -0.00308819 12.7542 7.31871
400 1 -0.487687 11.8381 7.44769
401 1 0.00130481 11.5147 6.69211
402 1 -0.295691 10.6527 7.34676
403 1 -0.981208 10.7214 8.06761
404 1 -0.167013 11.1068 8.24139
405 1 0.475264 11.6428 7.78208
406 1 1.28155 11.9575 7.45235
407 1 1.8212 12.9551 7.69225
408 1 0.922356 13.2158 7.96321
409 1 0.335339 12.6888 8.50874
410 1 -0.253135 13.2554 8.90449
411 1 -0.951027 12.3242 8.72634
412 1 -1.39431 12.3255 7.85222
413 1 -1.86082 12.5903 8.6381
414 1 -1.8216 11.6323 8.68062
415 1 -1.12141 11.6391 9.44046
416 1 -1.56455 11.5366 10.368
417 1 6.18509 10.8808 3.08517
418 1 6.41402 10.7093 4.03943
419 1 6.44538 11.4966 4.63895
420 1 5.68568 11.422 5.26874
421 1 4.99337 11.8541 4.73224
422 1 4.25873 11.2131 4.51429
423 1 4.6268 10.9395 5.42399
424 1 3.71416 10.5302 5.35222
425 1 2.89546 10.5506 6.04085
426 1 3.42009 11.2842 6.0434
427 1 4.04365 12.0077 5.90222
428 1 4.69176 12.7899 5.95611
429 1 5.51789 12.6412 5.54736
430 1 6.20887 12.1921 6.12398
431 1 5.90053 13.0671 6.50226
432 1 5.15682 12.5898 6.86222
433 1 5.08999 11.6248 6.73928
434 1 5.34109 10.7891 6.94572
435 1 5.51239 11.5527 7.57309
436 1 5.38047 11.4433 8.53751
437 1 4.48759 11.7661 8.11121
438 1 3.56816 11.3419 7.8949
439 1 3.99458 10.8822 8.72788
440 1 4.4633 11.4441 9.39213
441 1 3.87112 12.1895 9.54003
442 1 4.1675 13.1246 9.56664
443 1 4.55827 13.6073 8.83909
444 1 4.98618 12.7873 9.20347
445 1 5.53277 12.0535 9.48348
446 1 5.57042 12.6289 10.2433
447 1 4.60676 12.5541 10.4315
448 1 3.96546 11.7319 10.741
449 1 9.57913 12.2266 3.01796
450 1 9.7515 11.4218 3.82037
451 1 10.1058 11.1801 4.61803
452 1 9.37492 11.5774 4.94702
453 1 9.46542 12.51 4.81081
454 1 10.4105 12.4163 5.276
455 1 11.3512 11.9379 5.47557
456 1 11.6301 12.2468 6.30829
457 1 11.099 11.5353 6.63087
458 1 10.2589 11.7979 6.34932
459 1 9.90328 11.3617 7.10931
460 1 9.05621 11.8072 6.80272
461 1 9.32803 12.3855 5.99062
462 1 8.89729 12.762 6.76733
463 1 9.84743 12.6068 6.84996
464 1 10.0078 13.5967 6.80526
465 1 10.3138 13.0332 7.65117
466 1 11.1934 12.9323 7.98123
467 1 11.0094 11.9481 8.13042
468 1 10.6772 11.1332 7.70737
469 1 10.8564 11.0857 8.70946
470 1 9.89851 11.4899 8.7144
471 1 9.6826 12.3418 8.55889
472 1 9.0997 12.1559 7.87301
473 1 8.66086 12.0566 8.72954
474 1 8.32116 12.9923 8.76897
475 1 9.17838 13.2775 8.82903
476 1 9.87596 14.099 8.66983
477 1 10.6244 13.6421 9.09949
478 1 11.1198 13.3145 9.82508
479 1 10.2673 12.6103 9.76526
480 1 10.6541 11.8303 10.092
481 1 14.8014 14.1964 3.9923
482 1 14.6759 13.2517 4.09284
483 1 14.7855 13.4281 5.01523
484 1 14.6979 14.1505 5.63361
485 1 14.0235 13.5556 6.21222
486 1 14.3267 12.6764 6.00303
487 1 13.4936 12.2594 6.19073
488 1 14.0973 11.5089 5.75007
489 1 14.8962 11.3365 5.26347
490 1 15.4164 11.3509 4.33289
491 1 16.0861 10.9619 4.75787
492 1 15.8706 10.6463 5.60554
493 1 15.9409 11.5681 6.1321
494 1 15.8004 12.4414 6.38848
495 1 16.7642 12.3723 6.5683
496 1 17.1221 12.9785 7.22173
497 1 16.1583 13.5073 6.91498
498 1 15.9881 12.8028 7.60415
499 1 14.9943 12.9682 7.81827
500 1 14.5447 12.3274 8.35258
501 1 14.8584 11.3757 8.13504
502 1 15.6254 11.3226 7.47526
503 1 16.4357 11.7644 7.83987
504 1 15.7615 12.1972 8.37271
505 1 16.587 12.6999 8.72675
506 1 16.4581 12.8333 9.67823
507 1 15.5899 12.8403 9.96799
508 1 15.5804 11.8749 10.1488
509 1 15.9591 10.9732 10.0483
510 1 14.9756 10.9468 10.0673
511 1 15.1926 10.1997 9.58977
512 1 15.2896 10.8681 8.93707
513 1 18.804 11.4603 3.73217
514 1 17.9422 11.8567 3.8887
515 1 17.9055 12.2772 4.77125
516 1 18.8513 12.5106 4.84018
517 1 19.6034 11.7815 4.70137
518 1 19.1963 11.8518 5.58099
519 1 19.0216 12.8159 5.95593
520 1 19.4117 13.6854 6.32836
521 1 20.2014 12.7824 6.31132
522 1 21.2186 12.7245 6.39543
523 1 21.242 11.7424 6.36623
524 1 21.626 11.9555 7.32868
525 1 21.3079 12.8652 7.39923
526 1 20.4431 12.2966 7.53968
527 1 19.8384 11.6453 7.07802
528 1 19.2105 12.1557 7.48855
529 1 19.0094 11.555 6.59614
530 1 18.3326 11.298 7.31734
531 1 19.0771 11.0806 8.05799
532 1 19.1311 11.3072 9.16865
533 1 18.7327 12.128 8.64616
534 1 19.6072 12.3898 8.88419
535 1 20.369 12.8522 8.69531
536 1 20.9507 12.0058 8.45854
537 1 21.8072 11.2786 8.15186
538 1 21.0885 10.9297 8.70326
539 1 20.4164 11.5724 9.11102
540 1 20.2423 12.4527 9.6087
541 1 20.9065 13.3027 9.59937
542 1 21.1322 13.9188 8.8949
543 1 21.6249 13.1999 8.45961
544 1 21.7807 12.3858 8.86487
545 1 28.1491 11.5557 5.52007
546 1 27.1982 11.4952 5.06307
547 1 26.289 11.2437 5.26428
548 1 25.8718 10.3579 4.83728
549 1 25.1228 10.7989 5.17172
550 1 24.7622 11.5071 4.75935
551 1 25.2582 12.2844 4.98852
552 1 26.1452 12.2691 5.52224
553 1 26.7546 12.3328 6.32781
554 1 26.4763 11.3004 6.29329
555 1 25.477 10.9152 6.24111
556 1 25.1778 11.7797 6.16628
557 1 25.6798 12.5505 6.52105
558 1 25.3412 12.897 7.29947
559 1 24.5875 12.4256 6.99678
560 1 24.3596 11.5388 6.94
561 1 24.8611 10.7567 7.15232
562 1 25.7948 11.2562 7.1918
563 1 26.6585 10.7933 7.3899
564 1 26.2567 11.2546 8.19319
565 1 26.2418 12.1186 7.93326
566 1 25.3558 11.8038 7.86178
567 1 24.3313 11.8114 8.0407
568 1 23.6948 11.2449 7.62057
569 1 23.9471 11.1161 8.63936
570 1 24.7179 11.6428 9.13206
571 1 25.4012 12.1667 8.79491
572 1 24.6849 12.8702 9.04651
573 1 23.6934 13.0474 9.35652
574 1 23.6659 12.2175 9.74395
575 1 23.0612 12.368 8.9949
576 1 22.3521 12.8443 9.64085
577 1 -1.29304 17.8127 4.60206
578 1 -0.723919 17.2029 5.26369
579 1 0.273414 17.1906 4.77342
580 1 0.875105 18.0095 4.73119
581 1 1.26122 17.509 5.46048
582 1 0.950918 16.6761 5.73916
583 1 -0.0129738 16.8958 6.09469
584 1 0.183681 17.7876 5.6299
585 1 -0.608626 18.5001 5.64474
586 1 -1.15101 19.2993 5.36784
587 1 -1.80336 18.6454 5.63789
588 1 -1.59105 18.9888 6.51876
589 1 -0.807455 19.6748 6.86672
590 1 0.102456 19.5306 6.40992
591 1 0.572904 18.6891 6.36084
592 1 0.5865 18.0003 6.99749
593 1 0.0104871 17.2643 7.10612
594 1 -0.941856 17.1492 6.89335
595 1 -1.52878 17.1036 7.69861
596 1 -1.30346 18.0418 7.33048
597 1 -0.432172 18.3545 6.78878
598 1 -0.120402 18.2949 7.78084
599 1 -0.16333 18.3857 8.70806
600 1 0.511514 19.0088 8.85513
601 1 1.03327 18.6552 9.60715
602 1 1.31798 17.8696 9.32126
603 1 0.376494 17.873 9.42822
604 1 -0.611855 17.6018 9.69072
605 1 -0.432583 18.606 9.90772
606 1 -0.418849 19.561 9.71077
607 1 -1.32388 19.3839 9.33435
608 1 -1.03392 20.178 8.90216
609 1 4.42878 19.8172 3.1279
610 1 4.43812 18.8404 3.32184
611 1 4.24156 18.377 4.06088
612 1 4.94429 19.018 4.32215
613 1 4.6864 19.8762 3.99775
614 1 4.16899 19.4644 4.71451
615 1 4.08161 18.6475 5.16498
616 1 4.80309 18.0483 4.76235
617 1 5.30704 17.3506 4.53157
618 1 4.69974 16.9069 5.32197
619 1 4.86506 17.8407 5.73811
620 1 5.65364 18.2392 6.0767
621 1 6.60507 18.6754 6.00002
622 1 6.42241 17.9995 6.8677
623 1 5.98202 17.0455 6.58604
624 1 5.19719 17.5127 6.93202
625 1 4.26818 17.478 6.57453
626 1 4.66116 18.4963 6.60535
627 1 4.76693 19.4775 6.56949
628 1 4.85278 19.9757 7.49457
629 1 5.06293 20.0879 8.37963
630 1 5.64546 19.3654 8.05377
631 1 6.10055 18.5268 8.2244
632 1 6.09822 18.3519 9.1626
633 1 6.63035 17.8612 8.37515
634 1 6.31843 17.1548 8.81074
635 1 5.53071 16.6985 8.84057
636 1 4.94068 16.9269 9.63519
637 1 4.04824 16.7419 9.37251
638 1 3.40518 16.9259 10.2658
639 1 3.16917 17.3832 9.46517
640 1 2.65254 17.2645 8.62194
641 1 9.36471 18.4203 3.79844
642 1 10.0765 18.7412 4.34914
643 1 10.506 19.4907 4.15351
644 1 11.4805 19.3803 4.43452
645 1 11.6757 20.3419 4.70121
646 1 10.8677 19.8698 5.29639
647 1 10.8737 18.7927 4.89063
648 1 11.381 17.9032 4.94295
649 1 10.5485 17.7404 4.37551
650 1 9.7635 17.6937 4.88399
651 1 8.95133 17.3926 5.35992
652 1 9.20344 18.3452 5.39756
653 1 9.50002 18.3283 6.28832
654 1 9.79997 19.1554 5.87928
655 1 9.17117 19.503 6.5938
656 1 9.48551 18.8567 7.33673
657 1 9.07617 18.4055 8.04003
658 1 8.91045 17.4534 7.60668
659 1 9.55865 16.8218 7.25178
660 1 10.4394 17.1683 7.13016
661 1 9.89929 17.6128 7.786
662 1 10.7352 17.9798 7.86281
663 1 10.3241 19.0028 8.06792
664 1 10.5607 19.6656 8.70465
665 1 10.8829 19.5356 9.73106
666 1 10.31 18.8734 9.93542
667 1 10.0012 18.0991 9.34678
668 1 9.65362 17.2595 9.09622
669 1 10.5237 17.0072 9.36096
670 1 10.7175 16.0872 9.56544
671 1 11.2047 15.7797 10.4984
672 1 10.8136 16.077 11.324
673 1 12.6965 17.6334 5.13582
674 1 13.0313 16.9941 5.73636
675 1 13.9153 16.555 5.61275
676 1 14.7199 16.1532 5.68041
677 1 15.1341 16.9328 5.25356
678 1 15.3628 17.7994 5.1282
679 1 15.3146 17.6237 6.15411
680 1 15.9045 16.839 6.2549
681 1 16.8235 17.181 6.00564
682 1 16.3153 18.0159 5.51991
683 1 16.2292 18.8995 5.85198
684 1 15.6439 19.3816 6.2936
685 1 15.0612 19.3781 7.05527
686 1 14.152 19.1672 7.21752
687 1 14.0954 19.0378 8.23805
688 1 15.0936 18.8729 8.34955
689 1 16.0051 18.9745 7.99518
690 1 16.1264 18.4336 7.21418
691 1 15.2882 18.068 7.42814
692 1 15.9472 17.3944 7.22249
693 1 15.2852 16.9149 7.57979
694 1 15.2263 17.2657 8.44666
695 1 14.1821 17.4013 8.40293
696 1 14.473 18.0635 8.98815
697 1 15.028 18.0296 9.88178
698 1 15.7819 17.7928 9.38081
699 1 16.1999 17.6945 8.56127
700 1 17.0712 17.3376 8.25422
701 1 17.5035 18.2358 8.44672
702 1 17.3869 19.1013 7.81117
703 1 16.9511 19.9305 8.27491
704 1 17.1189 20.4347 9.0984
705 1 19.0846 17.7068 3.69848
706 1 18.0904 17.9018 4.11775
707 1 18.5808 18.7779 4.30641
708 1 18.3069 18.2583 5.06141
709 1 19.1789 17.8731 4.926
710 1 19.5275 17.3517 5.75868
711 1 20.3673 16.8412 6.17126
712 1 21.0968 16.5952 5.38371
713 1 21.0592 17.5582 5.71781
714 1 21.8435 18.2182 5.69728
715 1 21.4447 18.9694 6.1182
716 1 20.6305 19.4093 6.40643
717 1 19.9445 19.2647 7.22711
718 1 20.1744 18.4591 6.82941
719 1 20.2955 17.5385 6.98283
720 1 19.3618 16.9875 7.09244
721 1 19.5111 17.6235 7.78051
722 1 19.1732 17.9179 8.64975
723 1 19.6903 18.8217 8.49756
724 1 20.2649 18.1165 8.2894
725 1 21.099 17.8483 7.61453
726 1 21.277 16.9716 7.94312
727 1 20.418 16.9195 8.43919
728 1 20.9431 17.452 9.09813
729 1 20.8447 18.3478 9.27003
730 1 20.6492 19.2402 8.64855
731 1 21.2659 20.03 8.82166
732 1 21.916 19.3448 8.38151
733 1 21.7492 18.3442 8.82071
734 1 21.9043 19.114 9.44752
735 1 21.0078 18.9974 9.88486
736 1 21.3314 18.0888 9.99787
737 1 26.5871 18.6474 2.58165
738 1 26.4558 18.3916 3.44245
739 1 26.502 19.0885 4.03111
740 1 25.5195 18.7256 4.06179
741 1 25.5529 17.686 3.76749
742 1 26.2886 17.1726 3.66374
743 1 25.9693 17.2335 4.61
744 1 26.7832 17.341 5.05646
745 1 27.3655 18.1326 4.76886
746 1 26.7898 18.5856 5.28648
747 1 25.8292 18.2732 5.64294
748 1 24.9646 18.291 6.08887
749 1 24.9035 18.7287 6.94187
750 1 25.9357 18.9892 7.08403
751 1 25.3232 19.5757 7.77987
752 1 25.4201 19.2023 8.62529
753 1 26.3753 19.1278 8.69734
754 1 26.2909 18.3639 9.25638
755 1 26.5505 17.7662 8.47187
756 1 26.1056 18.1603 7.68055
757 1 25.3734 17.5759 7.88363
758 1 24.4404 17.9339 7.81577
759 1 23.9727 17.3071 8.41933
760 1 23.8599 17.5805 9.30419
761 1 23.2484 18.2295 9.94524
762 1 24.0529 18.6026 9.60298
763 1 24.0594 18.8033 8.71926
764 1 24.6768 18.1612 9.07034
765 1 24.9049 17.2092 9.06843
766 1 25.5259 16.9294 9.69966
767 1 24.8897 17.7593 10.2042
768 1 25.9131 17.7735 10.1263
769 1 0.434678 25.0678 3.85176
770 1 0.093613 24.168 4.27685
771 1 0.824921 23.6618 4.35123
772 1 1.20487 24.3338 4.8312
773 1 0.575477 23.8664 5.46406
774 1 0.529563 22.8706 5.51118
775 1 1.43107 22.7187 6.00902
776 1 0.992929 22.0158 6.58085
777 1 0.218954 22.0676 7.15323
778 1 -0.444512 22.8702 7.28251
779 1 -0.508251 23.4742 6.47039
780 1 -0.53349 24.4405 6.29357
781 1 -1.50462 24.8738 6.20511
782 1 -2.15045 25.0792 6.83947
783 1 -1.23445 25.2176 7.18774
784 1 -0.251285 25.0706 7.12685
785 1 0.32147 24.2747 7.15335
786 1 0.985323 25.0152 6.67367
787 1 1.43485 24.3542 7.24275
788 1 1.28462 24.3801 8.30338
789 1 0.903525 25.2488 8.20011
790 1 0.283411 26.0855 8.49605
791 1 -0.343354 25.4728 8.15892
792 1 -0.844997 24.537 7.85422
793 1 -1.45007 23.8996 8.16458
794 1 -1.29435 23.2297 8.7873
795 1 -0.591768 23.0747 8.12388
796 1 0.0326547 23.0198 8.87064
797 1 -0.1093 23.8589 9.34953
798 1 -0.406992 24.6894 9.86201
799 1 0.00542427 25.0154 8.98528
800 1 0.572044 25.5709 9.69716
801 1 5.05968 24.9405 2.34978
802 1 6.07949 24.7736 2.56601
803 1 6.14281 24.6035 3.4283
804 1 5.3011 24.9021 3.34373
805 1 5.15797 24.7601 4.30598
806 1 5.62242 23.9197 4.18995
807 1 5.81829 24.1775 5.08744
808 1 5.79379 23.5415 5.89905
809 1 5.08381 23.0147 5.27439
810 1 4.77351 23.717 5.75661
811 1 4.05784 24.3758 5.96974
812 1 4.20349 25.1178 6.60013
813 1 5.19028 25.1374 6.47558
814 1 4.94802 25.8553 7.1068
815 1 5.95666 25.8463 7.26576
816 1 5.39097 25.352 7.99689
817 1 5.41099 24.4941 7.62846
818 1 5.61084 23.4732 7.56717
819 1 5.40027 22.7784 6.81025
820 1 5.35592 22.3623 7.63463
821 1 5.13109 21.8825 8.29591
822 1 5.58486 22.5615 9.0163
823 1 5.48074 23.5856 9.0315
824 1 5.1961 24.2842 9.65106
825 1 4.70271 24.6012 10.3562
826 1 3.81564 24.5367 9.99008
827 1 3.25855 24.7785 10.678
828 1 4.05575 25.1945 11.0262
829 1 4.29962 24.3866 11.484
830 1 3.96939 23.6571 10.9052
831 1 4.58894 22.8984 10.7925
832 1 5.00461 21.9112 10.3092
833 1 10.5315 25.9208 3.75691
834 1 10.5898 25.016 3.60486
835 1 10.0009 24.7608 4.34935
836 1 9.81336 25.6767 4.68643
837 1 10.098 25.2876 5.55249
838 1 10.9827 25.667 5.50257
839 1 11.8642 25.2922 5.3132
840 1 11.323 24.9204 6.2575
841 1 11.3616 23.8159 6.28986
842 1 10.7472 23.316 6.79426
843 1 10.0081 23.7489 6.47537
844 1 9.71955 23.1937 5.706
845 1 9.36433 23.0189 6.46702
846 1 9.55461 22.3134 7.17588
847 1 9.95972 23.1168 7.43448
848 1 9.05145 23.6438 7.49123
849 1 8.90997 24.4347 8.02774
850 1 8.73412 25.1916 7.45761
851 1 9.54724 25.4238 7.01034
852 1 10.392 25.2608 6.74986
853 1 10.224 24.7915 7.54609
854 1 11.1123 24.1996 7.38121
855 1 11.6313 23.3158 7.58768
856 1 11.3666 23.019 8.39353
857 1 10.8683 22.6378 9.04032
858 1 10.1682 22.1577 8.61256
859 1 9.09755 22.3315 8.63282
860 1 8.77107 22.0888 9.46654
861 1 9.29105 22.0929 10.3498
862 1 8.35644 22.2772 10.5635
863 1 9.00236 22.8839 10.9941
864 1 8.95569 22.3072 11.8387
865 1 12.5025 23.9032 4.59809
866 1 13.3284 23.9102 5.09933
867 1 13.8854 23.7262 4.38776
868 1 14.4891 23.3909 5.08774
869 1 15.2939 23.1504 5.69766
870 1 15.4104 24.0905 5.35213
871 1 16.243 24.2301 4.92182
872 1 16.533 25.1646 5.04189
873 1 15.8056 24.9852 5.70351
874 1 15.145 24.2539 6.25869
875 1 16.0273 23.7401 6.27887
876 1 15.7135 23.9404 7.11529
877 1 15.3415 24.8682 6.88697
878 1 14.6624 25.1421 6.32435
879 1 13.7142 24.9345 6.61512
880 1 13.3928 24.0091 6.56403
881 1 12.9218 23.2369 7.23149
882 1 13.5704 22.5125 7.28869
883 1 14.3529 23.1639 7.44632
884 1 14.9472 22.4197 7.63082
885 1 15.6457 22.8965 7.91049
886 1 15.7754 23.8205 8.07177
887 1 15.1253 24.5475 7.98955
888 1 15.2164 25.498 7.73462
889 1 15.7402 26.1206 8.23438
890 1 16.3794 25.4392 8.41402
891 1 15.8785 24.7758 8.82267
892 1 16.5853 24.0875 8.71298
893 1 17.2446 24.8197 8.80788
894 1 17.0031 25.1878 9.6992
895 1 16.1627 25.7765 9.57386
896 1 15.9833 25.1502 10.3212
897 1 17.3159 23.8838 3.74464
898 1 17.7543 24.5828 4.52277
899 1 17.8569 25.1084 5.31905
900 1 18.6829 24.8377 5.29903
901 1 19.5688 25.1761 5.1914
902 1 20.518 24.7757 4.97221
903 1 20.8357 24.3941 5.79227
904 1 19.9322 24.4219 6.25895
905 1 19.1441 24.1444 5.76064
906 1 19.1232 23.8316 6.60103
907 1 20.0068 23.3504 6.50819
908 1 20.9083 23.1789 6.82068
909 1 21.5274 23.4385 7.61789
910 1 21.3453 24.1723 6.97533
911 1 22.2989 24.5523 6.94265
912 1 21.6385 25.1434 6.61795
913 1 20.7808 25.042 7.20385
914 1 19.9939 24.3311 7.45493
915 1 19.2496 23.8617 7.71648
916 1 19.427 22.7688 7.84737
917 1 20.4127 23.2754 8.13896
918 1 19.835 24.2001 8.67539
919 1 19.3485 24.1897 9.51196
920 1 20.3381 24.4198 9.54639
921 1 20.7295 23.5303 9.27741
922 1 20.8029 24.1066 8.5441
923 1 21.2353 24.9637 8.66402
924 1 22.1106 24.9474 8.4128
925 1 22.2812 24.4674 9.37395
926 1 21.4404 24.0912 9.72703
927 1 21.1067 23.2467 10.054
928 1 21.6452 23.1171 9.24436
929 1 23.6911 23.643 4.56541
930 1 23.1504 23.5494 5.33905
931 1 23.8672 23.6284 5.93921
932 1 24.5164 24.3925 6.0618
933 1 23.9122 24.7249 5.47202
934 1 23.9753 25.4703 4.88748
935 1 23.2683 25.0457 4.52428
936 1 24.1621 24.7614 4.03136
937 1 24.5642 24.1792 4.85507
938 1 25.4399 24.5844 4.69327
939 1 25.9566 24.5826 5.49961
940 1 25.729 24.2701 6.32294
941 1 25.2279 23.5955 7.16476
942 1 24.466 23.9278 7.75911
943 1 25.2941 24.0297 8.31725
944 1 24.3062 24.0834 8.62094
945 1 24.1433 25.0287 8.453
946 1 24.9758 25.0424 7.97007
947 1 25.6073 25.6293 8.29635
948 1 26.431 25.2069 7.76139
949 1 26.9944 25.1273 7.06697
950 1 27.1857 24.2133 6.80847
951 1 26.8084 23.3483 7.01263
952 1 26.4197 22.6594 7.57261
953 1 25.5436 22.792 8.10208
954 1 25.2962 23.0502 8.97827
955 1 25.2255 24.065 9.33669
956 1 25.8884 24.931 9.47119
957 1 26.7547 24.462 9.43584
958 1 26.92 24.458 8.4847
959 1 27.6987 24.0605 8.82322
960 1 27.0128 23.4478 8.82585
961 2 0.119924 2.13407 21.242
962 2 0.62206 2.60208 21.9058
963 2 1.31054 1.79971 21.5822
964 2 0.916388 1.64982 22.4465
965 2 1.29048 1.82745 23.3688
966 2 1.86522 1.28888 22.8744
967 2 2.25895 1.91739 22.159
968 2 1.58672 2.77162 22.5688
969 2 1.91244 3.59672 22.2716
970 2 2.4904 4.49912 22.221
971 2 2.80443 4.47428 23.1293
972 2 2.0444 3.87552 23.3005
973 2 3.05562 3.52635 23.0973
974 2 2.40813 2.64287 23.2069
975 2 2.14032 2.17748 24.095
976 2 2.63875 1.39067 24.3845
977 2 3.42265 1.96576 24.3804
978 2 3.38042 2.91578 24.2854
979 2 3.4737 3.79444 23.9782
980 2 3.34203 4.08742 24.9709
981 2 3.60887 3.23982 25.4537
982 2 2.98381 2.34256 25.152
983 2 2.46455 1.82037 25.8595
984 2 1.92365 2.47183 25.3575
985 2 2.12509 3.34329 25.2772
986 2 2.42319 3.06705 26.2036
987 2 3.05852 3.68914 26.603
988 2 3.76607 4.04677 26.0459
989 2 3.77983 4.83773 25.4509
990 2 4.75634 4.92676 25.7171