LAMMPS data file via write_data, version 27 Jun 2024, timestep = 100000, units = lj

3264 atoms
2 atom types
3128 bonds
1 bond types

0 32 xlo xhi
0 32 ylo yhi
0 32 zlo zhi

Masses

1 1
2 1

Pair Coeffs # lj/cut

1 1 1
2 1 1

Bond Coeffs # fene

1 30 1.5 1 1

Atoms # molecular

2725 114 2 13.317929004819296 1.3745423367590859 2.0748527657141196 0 1 1
2727 114 2 13.326908085904995 31.90717261550362 3.043896917363563 0 0 1
1966 82 2 8.071437803477519 2.263412596623923 1.1589806679979264 0 0 1
1968 82 2 8.228504590530301 1.192440345653416 0.991990692591229 0 0 1
1967 82 2 7.353995586659171 1.6877001645076333 1.1672236259226723 0 0 1
1965 82 2 8.795022710225892 2.295640003980877 0.44672889363200835 0 0 1
1962 82 2 9.935335942073273 2.451574846340781 0.6243606108520173 0 0 1
1961 82 2 10.597055922246723 1.8613648412449877 0.27582852682993275 0 0 1
1752 73 2 9.312620011281753 2.8863701526013847 31.549307842822298 0 0 0
1960 82 2 10.71330330713174 1.9151764995131333 1.1743953178475373 0 0 1
96 4 1 12.209146698746748 1.658929774538241 1.818748110375689 0 0 0
2721 114 2 13.135561532886591 2.1190464411813354 1.0377760129566944 0 1 1
2722 114 2 12.928790290065104 2.6030758732093693 1.8922820043675577 0 1 1
2723 114 2 13.855498524979906 2.7196701613595726 2.1981958853412995 0 1 1
2018 85 2 14.561621401059206 4.889148795400274 1.419387338104144 0 0 1
2736 114 2 15.023692854887589 3.7340374949586006 0.4593546842407965 0 1 1
2735 114 2 15.167748682874977 2.8344557924824745 0.7011941888452653 0 1 1
2052 86 2 16.735823002649184 2.8061037224427285 0.9976159017344611 0 0 1
1644 69 2 6.135236647546717 5.005033346498094 31.12964816520566 0 0 0
1642 69 2 6.577055216947426 3.9725820757126318 0.44912636576254406 0 0 1
1706 72 2 7.423608981717476 2.176181210728638 31.821006945529625 0 0 0
1707 72 2 8.038406158188938 2.8593915742034963 0.13678509132378924 0 0 1
2333 98 2 8.318661624869478 4.039351770061204 31.716595845974418 0 0 0
1708 72 2 8.708718702635833 3.2850149072903267 0.6209302412522139 0 0 1
2332 98 2 8.81801310300279 4.842232287702895 0.031038326082175348 0 0 1
2329 98 2 10.697038485407479 3.3882800669950046 1.0964436783656166 0 0 1
2145 90 2 11.12411888241152 4.54774849588349 1.0897669076712782 0 0 1
1959 82 2 10.396139866764402 2.617618420236407 1.7360257148248155 0 0 1
1957 82 2 11.674607360606576 2.2495379641128035 1.0195049578682396 0 0 1
1956 82 2 12.138307338891638 3.045593473374845 1.2819740449937815 0 0 1
2165 91 2 12.987238622840826 3.879550176573991 0.6206144632590169 0 0 1
2164 91 2 13.30551229682925 3.372614133089253 1.3413398342596397 0 0 1
2019 85 2 14.13452071110317 4.104981050757775 1.0495248697391322 0 0 1
2446 102 2 16.038478484208078 4.1054452040625655 0.5293090865904913 0 0 1
2430 102 2 15.860131939528921 4.280239334504024 2.5669905456699813 0 0 1
2051 86 2 17.11565264288358 2.179101249648734 1.5605764593582858 0 0 1
2050 86 2 17.411312034588263 3.1319425950001754 1.639873884242182 0 0 1
2444 102 2 16.953818119795546 3.8253376467112323 0.6914555982276437 0 0 1
2445 102 2 16.36625183371688 3.317435006713593 0.148798863685776 0 0 1
2442 102 2 18.128475242356046 5.014799648116845 1.4868658303907911 0 0 1
292 13 1 5.234888215064977 6.68051809527911 0.5541486893412874 0 0 0
1646 69 2 5.832085474994749 5.171243390257121 0.609759071042892 0 0 1
1645 69 2 6.536209228375876 5.268295284957681 31.94788173642361 0 0 0
2337 98 2 7.507464206628617 6.189528985021096 31.667760945376482 0 0 0
1687 71 2 6.173809481141353 6.2899768978515675 31.8542945593178 0 0 0
1643 69 2 6.107560658472752 4.129034122054306 31.658843414669917 0 0 0
1709 72 2 8.67376824225606 4.2151497274636975 1.047559143528129 0 0 1
1704 71 2 7.798764302436779 4.934874683800169 31.8211573001243 0 0 0
1710 72 2 8.667722527921546 5.024474640370981 1.5616511407513645 0 0 1
2146 90 2 10.212992892885154 4.640929695674287 0.6535654551114439 0 0 1
2148 90 2 9.401632537434514 5.2428010879232865 0.7579599818404642 0 0 1
2144 90 2 11.05728630632936 4.315879787437416 0.1424631644127956 0 0 1
2175 91 2 10.443632317216746 5.757703603180422 0.3969324909319699 0 0 1
2174 91 2 10.707793464613662 5.48810381757696 1.2883655231780728 0 0 1
2173 91 2 11.593228294951441 5.992288541156241 1.3807274570127541 0 0 1
2172 91 2 12.495316950547803 5.872011484576726 1.0735910744409156 0 0 1
2166 91 2 12.254692617318403 4.486589294493597 0.7102920375156988 0 0 1
2167 91 2 13.04822254283816 4.930391998674994 1.087257329538601 0 0 1
2168 91 2 13.797282688747675 5.623592998888603 0.9743423683425131 0 0 1
2021 85 2 14.971306150926058 4.664080997042561 31.69402611452294 0 0 0
2447 102 2 16.25862398938059 4.5338646369235605 1.3312403168598572 0 0 1
2448 102 2 15.623056045366406 4.995815132104849 0.7030930637021386 0 0 1
2252 94 2 16.43387695995052 4.941938369000739 0.05899912394812863 0 0 1
2441 102 2 18.659539771864864 4.69611550977565 2.3463961121124433 0 0 1
2250 94 2 17.427200334339776 5.964302890481947 1.0316675391189096 0 0 1
2592 108 2 3.4388155894081773 5.438362525803878 1.243829227424298 0 0 1
2591 108 2 3.6946756661727624 6.352706493378932 1.347369158018709 0 0 1
293 13 1 4.602841111455162 5.886232900656923 0.7128362023235352 0 0 0
1694 71 2 6.534797912345045 6.12650601272247 30.90070754997619 0 0 0
1693 71 2 5.774477722059228 6.772462537190898 31.07928727178926 0 0 0
1685 71 2 6.862323240725841 6.859606935577926 1.290276296775708 0 0 1
1686 71 2 6.24138511219355 6.878702173318174 0.5159591493881632 0 0 1
1910 80 2 6.000929448615002 7.903934004378039 1.678492351463157 0 0 1
1684 71 2 7.588185683586465 6.687166680289696 0.7222424277037293 0 0 1
1711 72 2 8.283707250094333 5.266703293790205 0.7586147525041023 0 0 1
1701 71 2 8.150118353852978 7.116849539199098 31.713509724038914 0 0 0
1712 72 2 8.63521857970449 6.094462926556118 1.1038920822417928 0 0 1
748 32 1 8.839690364781235 7.212042242425016 0.6178381241085769 0 0 0
2149 90 2 9.43898187720406 6.018379556669412 0.17388463649519859 0 0 1
798 34 1 12.17167114426295 6.823547239899355 0.945682548262057 0 0 0
2150 90 2 9.769420232319405 6.2319873466197215 1.082720446954561 0 0 1
797 34 1 12.068872255754545 7.592472363764664 0.3283292757021048 0 0 0
2038 85 2 12.694123110389171 7.053849486034882 1.8352851726935062 0 0 1
2037 85 2 12.263387274118305 6.267778182530002 2.113286162746327 0 0 1
2169 91 2 13.339556686735593 5.566116650911025 0.1683785045070179 0 0 1
2040 85 2 13.505527815978006 6.667579249987411 0.6780904200582406 0 0 1
2033 85 2 14.662487666490687 7.426940822391352 1.6141069604588485 0 0 1
599 25 1 14.85478315519205 6.689595244967088 2.49078788107533 0 0 0
2026 85 2 15.834032940475492 6.298276421031581 1.092526239597016 0 0 1
2027 85 2 16.211389943274497 5.535567431074302 1.5104551308486385 0 0 1
600 25 1 15.221872967309922 6.051489818782585 1.8807686116099664 0 0 0
2032 85 2 15.21204612150142 7.180921572271454 0.8242690405472234 0 0 1
2253 94 2 16.400097785309367 5.83949608002516 0.2762191821807213 0 0 1
2029 85 2 16.528195693610414 7.223800717840181 1.0738563024015215 0 0 1
1058 45 1 18.64295723460307 6.009746213850496 1.3145820890134086 0 0 0
1057 45 1 18.457937631910998 6.944900119767376 1.034015030020411 0 0 0
1060 45 1 18.708259415751126 5.876607822210496 2.343436926233451 0 0 0
2249 94 2 17.70904173097757 6.674029613776628 0.411843920230558 0 0 1
2590 108 2 3.5278295005226012 7.241311171667254 1.5340245440738747 0 0 1
2588 108 2 3.275124997620276 8.547645749873022 0.7174952265132432 0 0 1
2587 108 2 4.158046369184772 8.294286323834065 0.4376324090735037 0 0 1
1909 80 2 5.493523595327655 7.131937026827294 1.4665251789288796 0 0 1
2134 89 2 3.768311681156388 8.322887549301749 1.626612351086472 0 0 1
1911 80 2 6.567346223570559 7.767003128781043 0.9506557198067046 0 0 1
1912 80 2 6.101326933800593 8.543274928358112 0.6122837954535542 0 0 1
749 32 1 8.151242108659714 7.866266160280382 0.47703900857135906 0 0 0
1658 70 2 7.106763498282854 8.535662429813902 0.4082838560622027 0 0 1
750 32 1 7.953405021949879 7.534887651439987 1.3207002287483667 0 0 0
1700 71 2 7.771576170632499 7.503410302577681 30.919170846528047 0 0 0
747 32 1 9.81360948921888 7.43544324723244 0.7490083264026093 0 0 0
1713 72 2 8.897175470704092 6.850887968420058 1.629574162193807 0 0 1
1714 72 2 8.854199925077426 7.815752897357654 1.4496544625836445 0 0 1
2182 91 2 9.300046144647562 8.235407672906941 0.21176071153314774 0 0 1
801 34 1 11.694989087233338 8.003625709559882 1.2278896273408175 0 0 0
800 34 1 11.168957507174136 7.30369292435764 0.8607696821485028 0 0 0
802 34 1 10.739346150417658 8.234106745206299 1.347358790287799 0 0 0
799 34 1 11.573589558324427 7.04961582661721 1.6697866129262875 0 0 0
2039 85 2 13.474149078012289 7.348489745477946 1.3533845497438444 0 0 1
986 42 1 10.559834649121122 8.229638376131982 0.2626215132120034 0 0 0
987 42 1 11.45489586413152 8.5473082610209 0.3229911030994465 0 0 0
2034 85 2 14.30556233525675 6.55454766954504 1.6476779729856383 0 0 1
1005 42 1 14.10164181609879 7.977395470214576 0.6714689985890269 0 0 0
1004 42 1 13.404434384006901 8.677853584725193 0.47454526028585275 0 0 0
2031 85 2 15.685857168940025 7.935033183697476 1.052877107263074 0 0 1
2404 101 2 18.358969836662933 7.843272960617933 0.062126760389903515 0 0 1
1074 45 1 17.404997088690926 7.72352934937774 0.8638763698241603 0 0 0
2405 101 2 17.3935235993307 7.90203511499656 31.784408287250397 0 0 0
1073 45 1 18.057457748327145 8.208348394958193 1.4284775251223005 0 0 0
2403 101 2 18.080242759418518 8.784486131337113 31.874835592532524 0 0 0
2401 101 2 18.19996942280541 9.197102769022182 30.95745795243006 0 0 0
1919 80 2 2.3873330625962326 8.960770177511941 0.3340823432507487 0 0 1
1920 80 2 2.1898149884622464 9.452868784387233 1.1137784250629421 0 0 1
2586 108 2 5.026107413039647 8.685603931509574 0.2985432271374008 0 0 1
2584 108 2 4.298645029608494 9.313577715859214 1.128006365223748 0 0 1
1941 81 2 5.93151388485637 8.771430306274748 30.582093398863268 0 0 0
2585 108 2 5.285213136076924 9.26848649291964 1.037311247907234 0 0 1
1933 81 2 6.755730404081776 10.094161075025292 1.2070003222256234 0 0 1
2133 89 2 4.6739574549209095 8.23247529508377 1.386964338219676 0 0 1
1940 81 2 6.177668845363512 7.8124587392620715 30.763763258870213 0 0 0
1657 70 2 7.808504563810547 8.863441515316442 31.850965669570662 0 0 0
1936 81 2 7.159286254198288 9.944852524954998 31.57890495401708 0 0 0
1935 81 2 7.327036067232903 9.564216050942226 0.41249448841370184 0 0 1
1294 54 1 9.554381763528381 9.331336314309667 31.990556619280976 0 0 -1
994 42 1 10.51312918938336 9.22624207305439 0.46162002799560775 0 0 0
996 42 1 11.636145326321758 9.91188733843766 0.8553523074276667 0 0 0
997 42 1 11.827230357234063 10.200014437896048 31.94567295804006 0 0 -1
998 42 1 12.52028749957179 10.547058590417096 0.4846401540025809 0 0 0
995 42 1 11.18788604565171 9.146391975597545 1.1532929741169813 0 0 0
1511 63 1 12.626490074933674 9.523436587323074 0.8317027554903004 0 0 0
1503 63 1 14.400950449492772 9.131463271587547 0.8898437017102739 0 0 0
1502 63 1 13.769794596694648 9.800208731109883 0.5804840282309466 0 0 0
1077 45 1 15.768828344655086 9.652568670603586 1.3133258244170638 0 0 0
1501 63 1 14.660863141765095 9.929104937248656 0.20888950880616436 0 0 0
1078 45 1 15.613205254684875 8.968619657053454 0.6282371268370475 0 0 0
2271 95 2 17.915271458021532 10.805170728787491 0.7332790561911078 0 0 1
2481 104 2 15.912960987103595 9.975273844051204 0.1930456471282127 0 0 1
2268 95 2 17.596992060051225 9.29822796425362 1.4424964426062854 0 0 1
2570 108 2 3.2765524068104495 10.610810821010533 0.7961858254551025 0 0 1
2569 108 2 3.1319297823325227 9.698615952921894 0.8491442569150469 0 0 1
3072 128 2 4.908496172327942 12.081726070907173 0.4758750043977235 0 0 1
1930 81 2 5.229972788852444 9.98372299631252 0.0008632543481894572 0 0 1
1931 81 2 4.8294490954100535 10.25040607981523 0.8705778048508027 0 0 1
1932 81 2 5.767561933527465 10.264041076354541 1.1312879270268608 0 0 1
1934 81 2 6.359402037267849 9.625942168854875 0.5205535381992744 0 0 1
3069 128 2 5.6456116194725094 10.839086815830676 31.451921160270174 0 0 0
3064 128 2 7.0069297229471 11.525504976677635 0.4900734347110728 0 0 1
2604 109 2 6.222952623063 11.316004888264686 1.3888279545211775 0 0 1
976 41 1 8.17609449546562 9.883604384151779 0.845301168328225 0 0 0
3063 128 2 7.555997222415452 10.724974497341389 0.5993953183084606 0 0 1
975 41 1 8.932978179229552 10.107739264617772 0.32303993516815255 0 0 0
974 41 1 9.599639519784901 10.839308261038 0.4883656601643852 0 0 0
1290 54 1 9.713981322246708 9.545764241607316 1.257144526993029 0 0 0
977 41 1 8.558596110521604 9.692578724251057 1.7582459943472033 0 0 0
1291 54 1 10.268805296516833 10.293133238433466 1.1141449011027604 0 0 0
1249 53 1 10.512611572514434 12.656092020480596 1.9331460307406116 0 0 0
1252 53 1 11.681669967054123 11.252754579897019 0.6331938361988909 0 0 0
1254 53 1 12.646689978388046 11.582815160401253 1.0476841221853048 0 0 0
999 42 1 12.289329700344336 11.135708307314205 31.716521400522154 0 0 -1
1000 42 1 12.980838802815702 10.8492070598065 31.04999785773343 0 0 -1
2674 112 2 13.39733391852955 11.516085718940948 0.3409067886933771 0 0 1
2673 112 2 14.007033577757761 10.963006877721186 0.7825354825773956 0 0 1
2672 112 2 14.643385816977979 11.07112424067409 0.0863679952112796 0 0 1
2675 112 2 13.643807172722974 11.651643575474084 31.430085818200755 0 0 0
2482 104 2 15.823196586710065 10.872127649007473 0.0013911561973892635 0 0 1
2671 112 2 14.45464634272911 12.0076278388842 0.011995108273880728 0 0 1
1500 63 1 14.727046039038523 10.1288622340462 1.1408263330428337 0 0 0
2666 112 2 16.823462554303433 11.560268891826995 0.6442291536133061 0 0 1
2668 112 2 15.183046699691985 12.259068605096616 0.9767913792612745 0 0 1
2667 112 2 15.91994253087648 11.660155024294928 0.8833802384090996 0 0 1
2269 95 2 17.92911722729905 9.6733098438938 0.6032915869046639 0 0 1
2880 120 2 17.694959528567367 11.127280193328167 29.979035300822712 0 0 0
1270 53 1 18.91143607984332 11.316920438723336 0.5539144638973609 0 0 0
2281 96 2 3.215362438872552 12.203983347727169 30.693785696299887 0 0 0
2854 119 2 2.9966273983091027 12.873631764856448 0.9222053622232989 0 0 1
2853 119 2 3.7878698959848296 12.363666529940744 0.7276663876132763 0 0 1
2282 96 2 3.747537171321972 12.569577178476813 31.404452842048723 0 0 0
2283 96 2 4.495162315042003 13.229535263670698 31.458150451687718 0 0 0
3071 128 2 5.366158916306495 11.209440704429603 0.6239630907798569 0 0 1
2851 119 2 4.936833009722757 12.736451514291748 1.4400254603098948 0 0 1
1417 60 1 4.865447346527919 13.18356349355057 0.43394847983090756 0 0 0
2850 119 2 5.756371376907356 12.299091685567706 1.1446303923634578 0 0 1
2848 119 2 6.902666614859231 12.560438496398884 31.801087986539315 0 0 0
2603 109 2 6.744878930639523 12.1120286645845 1.3905368352562757 0 0 1
2849 119 2 6.170208068417138 12.106707525786513 0.3051296624084689 0 0 1
3055 128 2 7.950325764786532 13.079405290126722 0.16396906393106442 0 0 1
2602 109 2 7.533763275265818 12.30970379429732 0.9346779544633196 0 0 1
2601 109 2 7.696640244812574 13.194901126882142 1.419509217044507 0 0 1
2610 109 2 8.623951602997508 12.389492917201444 0.5759354670095306 0 0 1
3058 128 2 9.63774771206698 12.543843738661248 1.0050631468730278 0 0 1
2609 109 2 8.519797000852435 12.36988145734208 1.587642631916929 0 0 1
2689 113 2 10.175568762226192 11.8143501805324 0.3518330116659507 0 0 1
1250 53 1 10.877952206538373 12.339972137527521 1.1218783558318992 0 0 0
1251 53 1 11.463021179819984 12.133173284004943 0.34676475867394285 0 0 0
1253 53 1 11.794857039756229 11.975241984472595 1.3559826655415057 0 0 0
1203 51 1 12.023442691647816 13.701894572123962 0.46200937604995407 0 0 0
2699 113 2 12.599806793061212 12.351541270464573 0.11334189156588437 0 0 1
2698 113 2 13.546740058803481 12.648987728524565 0.10600323712759674 0 0 1
2701 113 2 13.644762651156846 12.772476466507417 30.73311424108819 0 0 0
2697 113 2 14.257017162412096 13.221436529096165 31.678316935975968 0 0 0
2485 104 2 15.372139871307832 12.878865915732627 31.22179421627232 0 0 0
2670 112 2 15.43522969619701 11.898128744759441 31.88523417517104 0 0 0
2669 112 2 15.368133778997027 12.816034422174356 0.2069281042581909 0 0 1
2702 113 2 14.472750900821675 12.298533010141973 30.693652028772796 0 0 0
2486 104 2 16.102845540650822 13.297214523009954 31.584130808934404 0 0 0
1271 53 1 18.389861785103275 11.0873309639079 31.8128333699953 0 0 -1
2876 120 2 18.08028450427717 12.799324684475964 0.45909221074460527 0 0 1
1272 53 1 18.246752191258942 10.175012380161037 31.702119835509674 0 0 -1
2070 87 2 2.965729958385107 13.546223607550308 31.87623610416115 0 0 0
2069 87 2 3.6285328463949775 14.010271163114417 31.28638378481317 0 0 0
2073 87 2 4.742404002254243 14.028178265289604 1.5843167492917416 0 0 1
2284 96 2 4.820556383263615 14.087008580397793 31.65760543466557 0 0 0
1421 60 1 5.358956215358333 14.260680407313991 0.5551688064519548 0 0 0
1422 60 1 5.393289250518077 14.931891252739694 31.884111440589486 0 0 -1
1419 60 1 6.021528372609758 13.41728309357625 0.3701788031324139 0 0 0
1420 60 1 5.742879871357811 13.712168497185512 1.258771967274703 0 0 0
2785 117 2 7.517437528770817 15.398997166229995 1.2262932254483623 0 0 1
1425 60 1 6.862911685249302 14.125185279025501 1.0661503186019126 0 0 0
3056 128 2 8.26619341540163 13.843850103832061 0.6268550960127819 0 0 1
2787 117 2 7.878506149908421 14.9482697194261 0.24411196940938848 0 0 1
2794 117 2 9.0753923537094 13.253581827182744 2.2071928632134346 0 0 1
3057 128 2 9.037527156635575 13.329891667018723 1.043253772224449 0 0 1
962 41 1 10.811998404798143 14.291221358562298 0.5176284854740699 0 0 0
2792 117 2 8.896859950839286 14.226036797985852 1.448846276080447 0 0 1
1201 51 1 10.384189986155185 13.456060830366024 31.775960212101868 0 0 -1
963 41 1 9.917819165351295 14.464575106654765 0.07788037548055496 0 0 0
964 41 1 10.63974832319632 14.399188229496115 31.414431123813987 0 0 -1
3257 136 2 11.937896552599746 15.912414590386106 31.80280429881851 0 0 0
1202 51 1 11.223842703144175 13.277550341199804 0.13907911422117247 0 0 0
1204 51 1 12.230855609466344 14.262871271445253 31.735073606936123 0 0 -1
1205 51 1 13.08741544145288 14.595534040383058 31.41243620760959 0 0 -1
1494 63 1 12.992209473101456 13.469400703024707 1.0765603591543056 0 0 0
1207 51 1 13.942091538210443 13.969905889572175 0.7140305342491198 0 0 0
1210 51 1 14.14925294922357 15.89335296595938 31.714669342599116 0 0 -1
2696 113 2 13.374269272918886 13.64152911258458 31.706021356764065 0 0 0
2894 121 2 15.60939681878703 14.128002285261994 31.19169826519568 0 0 0
2895 121 2 14.91984838810134 14.201139424344063 31.90300652697836 0 0 0
2489 104 2 17.336681647869128 12.689533146903582 30.577625948368077 0 0 0
2896 121 2 15.71176324819382 13.89828653874497 0.378340803695001 0 0 1
2492 104 2 17.273832775481672 13.460868854790457 29.826681100702693 0 0 0
2493 104 2 18.250012772470917 13.625891993015374 29.620770137105787 0 0 0
2875 120 2 17.62473993570901 13.612339846365494 0.6699334965825576 0 0 1
2071 87 2 3.81327162902815 13.442059672033016 0.34370344493215493 0 0 1
1436 60 1 4.199696435600082 16.134067340216234 0.9906984845873443 0 0 0
1435 60 1 4.336906956130475 15.260607832895936 1.421699033799224 0 0 0
1434 60 1 5.220940974239984 14.894693708447521 1.4608629510949829 0 0 0
1433 60 1 6.127268985654493 14.93834236921494 1.4987883624691858 0 0 0
1426 60 1 7.741143699127595 14.253922939763555 1.4702193714822023 0 0 0
3095 129 2 7.27458850057511 16.371642308378593 0.6874432141683281 0 0 1
3247 136 2 7.780817192461365 16.701994585348853 1.8132104025393705 0 0 1
1427 60 1 8.323709300375358 15.08530525413892 1.742122480791163 0 0 0
2791 117 2 8.969449817387735 14.673584329878693 0.6011911768659276 0 0 1
3254 136 2 10.071703152287897 15.104998151615344 0.8625986739447917 0 0 1
3256 136 2 11.020516331483616 16.141260739687958 31.744134658886466 0 0 0
3258 136 2 12.216796121067944 15.480863184933714 31.099767184837333 0 0 0
1472 62 1 12.369379404943091 14.47335696448479 0.8867098698895356 0 0 0
2927 122 2 11.813076194066788 16.981800114112524 0.1324818875118861 1 0 1
1209 51 1 14.13300106935186 14.898706986140848 31.93344450274193 0 0 -1
1471 62 1 12.534773525738622 15.22330207902852 0.34231087568373475 0 0 0
2711 113 2 16.46802470354979 15.250197480967582 1.028501636945019 0 0 1
2491 104 2 17.54748714109929 14.08210988436764 30.443005309856282 0 0 0
2712 113 2 17.01320634509236 14.540922689458574 0.6537102935733068 0 0 1
2710 113 2 15.855094432175731 15.095571441581257 0.28512260687758506 0 0 1
1437 60 1 4.896504555717203 16.791131983400337 0.8816953928912272 0 0 0
1438 60 1 5.156531948456875 16.020314225122487 1.4163956221656127 0 0 0
3091 129 2 6.9228304951965 17.487851923870952 1.6539483430015416 0 0 1
3090 129 2 7.002128516919917 17.46508827027447 0.7072265497077359 0 0 1
3093 129 2 6.010927481067144 17.017548537092367 1.6180053199482398 0 0 1
3092 129 2 6.07044878180454 17.900300776052504 1.3064651763709703 0 0 1
2918 122 2 8.548822387645666 18.00935250533555 0.5798558614091889 1 0 1
2919 122 2 8.278785367814697 17.065570491739596 0.8514106198833783 1 0 1
2920 122 2 8.133383423124743 16.78511191640243 31.970176606704964 1 0 0
2944 123 2 10.15520293244965 16.997585738747464 31.650512270713392 0 0 0
2943 123 2 9.96524176156769 16.08155214020414 31.815847970858773 0 0 0
2924 122 2 10.767553074652383 18.34001890662702 0.4678576406026967 1 0 1
2926 122 2 11.488524194115772 17.56461562195384 0.853612355755624 1 0 1
2942 123 2 10.147040918908104 16.38572440159211 0.7504702377923586 0 0 1
2945 123 2 11.027403898250501 17.285272048433875 31.47053856273491 0 0 0
2928 122 2 12.689855304822768 17.25523827897099 0.2584137664300074 1 0 1
1467 62 1 14.65634383232553 17.298254512367958 31.638546058546932 0 0 -1
1468 62 1 13.8455246934072 17.238195261636452 0.06461409548307731 0 0 0
1440 60 1 5.179527619875102 17.09631179077068 2.3206563297028393 0 0 0
3089 129 2 7.133564651959831 18.373313255467853 0.44891725053298176 0 0 1
3086 129 2 7.539685544683284 20.24218281608503 1.701946702438299 0 0 1
3088 129 2 7.555843928660874 19.185800604565426 0.8322126707424088 0 0 1
2808 117 2 10.383221500859419 18.107164907395543 1.4332886577175643 0 0 1
2921 122 2 9.069719933947107 16.901747106326617 31.851610519499793 1 0 0
2923 122 2 9.956790178057371 18.08232604791378 0.09650184971696535 1 0 1
2807 117 2 10.654852387749875 17.584238314994465 2.2155035562425955 0 0 1
2806 117 2 9.903261996028332 17.04235525218855 2.0013613677788467 0 0 1
2925 122 2 10.61964848522999 17.385510888925413 0.5455793193221554 1 0 1
3215 134 2 10.442647853975531 20.251550528182605 2.0108962065599285 0 0 1
1987 83 2 10.484020882616559 1.141407796186912 2.768587063449754 0 0 1
1988 83 2 10.924208884443084 0.7250868424560708 3.494087277305598 0 0 1
92 4 1 12.374754173037399 0.5443840553219307 2.4228361926524347 0 0 0
91 4 1 12.661892983894969 1.3043999691208474 2.898494330055829 0 0 0
2726 114 2 13.48406093253401 0.4300736590825105 2.232067596445601 0 1 1
2729 114 2 15.135125591029968 0.065937105839285 3.714570251017236 0 1 1
2728 114 2 14.202757255562917 31.99523244301853 3.4007310751771076 0 0 1
1651 69 2 5.897140229410173 2.8030238528477636 2.0397476152860197 0 0 1
1652 69 2 6.0185686944601535 3.565976410182424 2.609884996676737 0 0 1
1964 82 2 9.261666929666239 2.0002503690693207 1.2763667631432094 0 0 1
1963 82 2 9.636620469580668 1.5142149500090891 0.4901110711536018 0 0 1
1986 83 2 9.75794474277824 0.8520271213750658 2.2417368499722454 0 0 1
95 4 1 12.265711605079039 2.212831050040383 2.6079332997404547 0 0 0
94 4 1 11.43971977180204 1.7076623973450349 2.9586621146326815 0 0 0
1985 83 2 9.458356813952566 1.2700276775437376 2.998503078894628 0 0 1
93 4 1 11.511259995333496 0.9340464869720799 2.3283605417582085 0 0 0
2162 91 2 14.583723775061715 3.5246398204734297 2.6083248628941194 0 0 1
2724 114 2 13.481905304557731 2.036436690754548 2.7432476208550587 0 1 1
2161 91 2 14.740404975388678 2.686915297725267 2.9799577194313756 0 0 1
2732 114 2 14.686240232484007 1.292749072989229 1.8931596237581327 0 1 1
2731 114 2 15.428467323108508 1.411969199878703 2.4816292849957247 0 1 1
2053 86 2 15.981323274000705 3.3218066046152592 1.2826843660246772 0 0 1
2733 114 2 14.715823889351416 2.2364818439104033 1.8245994929483518 0 1 1
2054 86 2 15.822107416226656 2.3381020924744345 1.3836459969561363 0 0 1
1100 46 1 3.516747334928802 3.9517276008943525 3.609908930074573 0 0 0
1648 69 2 4.857789766253621 4.672506669387883 0.35863453035119647 0 0 1
1102 46 1 4.597409057915535 3.5490142600196006 3.4589847430586387 0 0 0
1650 69 2 5.470832600282961 3.2499180011479774 1.325984828755783 0 0 1
1649 69 2 5.252621222435105 3.825198126014546 0.5766075442355622 0 0 1
458 20 1 5.898915550758896 4.25123284456777 1.3228166206260605 0 0 0
1641 69 2 6.8077220408859604 3.662693924233079 1.3217653630092732 0 0 1
1640 69 2 7.51001333892036 3.8497433790115467 0.664934419753612 0 0 1
2331 98 2 9.353179407449417 3.9939141952140074 0.0776562744072973 0 0 1
70 3 1 7.923129571276991 2.6352611988901837 2.4467074536858995 0 0 0
72 3 1 7.0151736004963 2.7083501563481938 0.8483101366522762 0 0 0
1639 69 2 7.916770043186463 3.2933816793790167 1.334310873748006 0 0 1
2330 98 2 10.183496048954462 3.578053748638335 0.3007952534939682 0 0 1
1958 82 2 11.32764070966125 2.608675605253904 1.870789515887673 0 0 1
59 3 1 10.966675609003426 3.7117039875686046 2.346979554409914 0 0 0
60 3 1 11.736161469188954 3.226628324605896 2.569427858693906 0 0 0
2163 91 2 13.878161765295022 3.7608848786712383 2.1246110729734613 0 0 1
561 24 1 13.621776279531637 4.55582529647448 3.365613779089855 0 0 0
2427 102 2 14.441946927775149 4.654732643790801 2.5838526470586314 0 0 1
563 24 1 13.373794864729273 3.348416519809481 3.0662190508645097 0 0 0
2734 114 2 14.581071690120943 3.0936225738075875 1.4239983992207732 0 1 1
2428 102 2 15.186775353659893 4.971946029748718 3.080208769386105 0 0 1
2429 102 2 15.451900774031673 5.032277872693098 2.1522127268411877 0 0 1
2049 86 2 17.351712950252722 4.046666494161777 1.8673223967705532 0 0 1
2432 102 2 16.90752071073279 4.369268478306523 2.726485222599113 0 0 1
2431 102 2 16.455473242703157 3.577540978129654 2.2492794011893045 0 0 1
1098 46 1 3.927200447745288 4.072490260887757 2.002257165987749 0 0 0
1099 46 1 3.337438805036968 3.714068402973023 2.656461264808593 0 0 0
1647 69 2 5.177108009135028 4.8488734915504 1.2626823950491195 0 0 1
1097 46 1 3.1733101132518646 4.6601858408577845 1.8874156362938501 0 0 0
1096 46 1 3.7851028665661355 5.268070591667879 2.319828525997669 0 0 0
295 13 1 5.346451438693614 6.0209761301864635 1.4113726193866454 0 0 0
1683 71 2 6.992179755566116 5.959723099852711 0.5533142958151764 0 0 1
457 20 1 6.3033692338601615 5.112612071565387 1.6109937622427044 0 0 0
1682 71 2 7.28972991544747 5.120154856076747 0.7778948145194443 0 0 1
1681 71 2 7.509552714353735 5.7293486639517495 1.4083841166111153 0 0 1
1633 69 2 9.766519509785656 4.140802807876855 1.439560407363177 0 0 1
1635 69 2 9.624843698631963 4.365132702627775 2.506533018731339 0 0 1
1638 69 2 8.663066860898905 3.581494122846178 1.9148716846638483 0 0 1
1634 69 2 10.356838600698318 4.724354814019644 2.0180842946503352 0 0 1
558 24 1 11.824742323041642 4.059169810995058 1.6880048041560076 0 0 0
559 24 1 12.616238190612139 3.7328797717722106 2.0956238169115675 0 0 0
557 24 1 11.657220531340124 5.03281517676315 1.793692736999833 0 0 0
560 24 1 12.87979337798283 4.297337977562566 2.8360841086365416 0 0 0
588 25 1 12.714519624927556 5.177819267338093 3.5869845072138404 0 0 0
1797 75 2 14.166130405484413 6.248122328222147 3.11322813375242 0 0 1
2425 102 2 12.723651292007618 5.016254200871154 2.2117326483329744 0 0 1
1798 75 2 13.344261783684509 5.730202441559724 2.9510424033607867 0 0 1
1796 75 2 14.203951193904333 5.392556786717582 3.482592322973295 0 0 1
2426 102 2 13.65642501901516 5.052643672682943 2.0792587475728603 0 0 1
2047 86 2 16.801457260435626 5.695816103503888 2.3513819805594376 0 0 1
2048 86 2 17.137729575493086 4.954148135229632 1.8616891554693507 0 0 1
2046 86 2 16.174349910499814 5.488174879728689 2.999704690131463 0 0 1
1062 45 1 17.934096794101443 5.961054701289076 3.251383149250391 0 0 0
2439 102 2 18.007733112655693 4.8050314305423285 3.243744341373468 0 0 1
2440 102 2 18.80602168799262 5.203500074215478 3.0941571279556506 0 0 1
2438 102 2 18.107599319420448 3.905881966425997 2.9059733336942037 0 0 1
1061 45 1 17.828789032240483 5.4367127965488695 2.476708333122704 0 0 0
2120 89 2 2.4854854058206257 6.167422208345389 1.5968171477088053 0 0 1
2119 89 2 2.6163708103870142 5.610017278251204 2.374140768239829 0 0 1
2118 89 2 2.410418831592209 6.326941926445415 2.940093181770037 0 0 1
2121 89 2 2.208905924866037 7.015929645090374 1.99801138380217 0 0 1
294 13 1 4.47859085853942 5.714875171531607 1.6332723310276622 0 0 0
1908 80 2 4.544304975582219 7.2251966358652755 1.532360984955767 0 0 1
2126 89 2 5.32156217651988 7.424097276138207 2.409099142308338 0 0 1
2125 89 2 4.85733938760205 6.550708739894004 2.214570614611827 0 0 1
296 13 1 6.2430426067961875 6.148886079228758 1.5554572362504409 0 0 0
297 13 1 6.257103940242271 6.799556479045189 2.291094904828328 0 0 0
298 13 1 6.64619284262185 5.974132351937655 2.500546361970018 0 0 0
751 32 1 7.940775192268671 6.810731136766131 1.9629432689890418 0 0 0
299 13 1 7.472357563895983 6.422667019197389 2.755032920164276 0 0 0
300 13 1 7.220394043441499 7.251138314853229 3.152018798501118 0 0 0
752 32 1 8.460586713441895 6.0178920086283325 2.173337446268821 0 0 0
2151 90 2 9.695618900026538 5.525579906612213 1.690402417824091 0 0 1
555 24 1 11.018817403910353 5.327226061612185 2.7137389475488614 0 0 0
264 11 1 9.972266588010429 5.367156810836229 3.07742841916406 0 0 0
2155 90 2 10.592372023050372 6.607450577469755 3.3244457037455546 0 0 1
556 24 1 11.649086421482608 4.568494366203078 2.624471131688611 0 0 0
554 24 1 11.379231283703689 6.202403463042135 2.595217258411038 0 0 0