LAMMPS data file via write_data, version 27 Jun 2024, timestep = 100000, units = lj

3264 atoms
2 atom types
3060 bonds
1 bond types

0 32 xlo xhi
0 32 ylo yhi
0 32 zlo zhi

Masses

1 1
2 1

Pair Coeffs # lj/cut

1 1 1
2 1 1

Bond Coeffs # fene

1 30 1.5 1 1

Atoms # molecular

3028 190 2 12.694722840686751 1.5596378412179372 1.2668376988879841 0 0 1
3025 190 2 13.527297457222696 1.2393974055455395 0.8913202951718534 0 0 1
2123 133 2 9.550664876972121 2.638231572623119 31.08898862395167 0 0 0
2832 177 2 9.534769346197157 3.080301549521189 0.998254549020047 0 0 1
2128 133 2 9.437116848374407 2.1567111019336838 1.1253803747542548 0 0 1
2124 133 2 9.753558037122684 2.785907298239968 31.97696931227296 0 0 0
2826 177 2 11.117563254421674 1.9637884275397592 1.7507649375751646 0 0 1
2824 177 2 11.727398805773118 2.4907622115819215 31.988315728248928 0 0 0
3029 190 2 13.096803573847188 1.7795217991118017 2.032466943091323 0 0 1
1156 73 1 14.060439512421897 3.085750210900511 0.48960729256093116 0 0 0
3037 190 2 12.852717562349907 3.060016582930914 2.1392657114964666 0 0 1
3027 190 2 12.463627404950826 2.509757381363538 1.1717432120740159 0 0 1
3039 190 2 13.920424975859763 3.2398385366320084 2.151111613591744 0 0 1
1404 88 1 16.123577655719195 3.689511612387474 0.4712312655047923 0 0 0
1403 88 1 16.585548254148634 2.810960252604082 0.1886270615411021 0 0 0
2622 164 2 7.038630644782369 3.090654617498838 1.4230901357184116 0 0 1
2618 164 2 7.318886124051394 4.053150212857548 31.93362265546198 0 0 0
3141 197 2 8.220999734924478 4.158783216250407 30.75993956791259 0 0 0
2831 177 2 8.81690075187981 3.71924204694949 1.1079270388378497 0 0 1
2621 164 2 7.730516501297976 3.039976110342872 0.7590816487130321 0 0 1
2829 177 2 9.896233548002042 4.165903835103131 1.0434457274520597 0 0 1
2830 177 2 9.234753935453687 4.124455030395972 0.34120489894173045 0 0 1
2126 133 2 11.001043570208866 2.977074392576581 0.5170434633161856 0 0 1
2127 133 2 10.39923062836794 2.342854288712518 0.9677663726175504 0 0 1
1969 124 2 10.599910848675364 4.968050987650282 1.3930515860080963 0 0 1
1970 124 2 11.168307340842958 5.040456046777508 2.1333064141950597 0 0 1
2825 177 2 11.579233476189724 2.080332486603807 0.8592857641835868 0 0 1
1159 73 1 12.05201365073969 4.344517337462852 0.11747281786745806 0 0 0
3035 190 2 11.63386234882264 3.6812206991055976 0.8782105171967112 0 0 1
1158 73 1 12.435093705067407 3.45303041069729 0.23337812762066035 0 0 0
1157 73 1 13.151369664101168 3.162595666243053 0.8476656748444169 0 0 0
3036 190 2 12.331801506898481 3.55411778941073 1.4907451586304963 0 0 1
3038 190 2 13.300769606113755 3.9251633697856194 2.228167118331643 0 0 1
1155 73 1 13.437434329610813 3.2112523193344202 31.75521174804494 0 0 -1
3185 200 2 15.405940442950662 4.056146517876341 1.2768223868749422 0 0 1
3186 200 2 15.502353892964726 4.727990405066305 1.98499074434394 0 0 1
1401 88 1 17.370351670680293 3.5175213125989404 1.771022442101999 0 0 0
1402 88 1 17.096761690228014 3.080111759010512 0.9807370056389194 0 0 0
1399 88 1 18.07740501189916 3.364028815863054 0.6719247547974682 0 0 0
3008 188 2 5.181616544016613 4.930287883528137 31.22693225487474 0 0 0
3007 188 2 5.323958524497566 5.805257592867707 31.627347009343584 0 0 0
1921 121 2 6.8184601820363895 5.332607004662292 1.9261481109520693 0 0 1
3006 188 2 5.951405962766385 6.148671060654526 30.913116920133596 0 0 0
1923 121 2 6.85515927643976 4.872614735793646 0.870917897752784 0 0 1
1924 121 2 7.35866157383036 4.0186709095425694 1.0996139132951717 0 0 1
1922 121 2 6.033811798576134 5.251513463934036 1.305434879327683 0 0 1
2336 146 2 8.685370465919089 5.268316573967292 1.2284092812883798 0 0 1
2663 167 2 9.841087237199702 6.194262079470515 0.8077668674321972 0 0 1
2664 167 2 9.725041754732025 5.227263528162249 0.8272610924914068 0 0 1
2665 167 2 9.242770485338463 5.107209618129903 31.98862424159937 0 0 0
1165 73 1 10.743516598003879 5.3665399318044456 0.41156716253578757 0 0 0
1164 73 1 11.22653373608807 6.1293920261093415 31.994969786226694 0 0 -1
1160 73 1 11.684480010582368 5.0993463318339405 0.5698421512457216 0 0 0
1161 73 1 12.613425913979794 5.299405193126864 0.7323166862892438 0 0 0
2987 187 2 13.033680878665283 4.254823026579698 0.8406643358632316 0 0 1
2989 187 2 13.675141852521097 4.969489577594353 0.8195423290405481 0 0 1
2988 187 2 13.903249264969931 4.137389523768483 1.1239319410596054 0 0 1
1153 73 1 14.942661614573076 3.8247725342197367 0.27301955807578315 0 0 0
2957 185 2 15.562344621524597 4.585601142842911 31.99896450453943 0 0 0
2956 185 2 14.634255159377332 4.963547505481964 0.20311929240899304 0 0 1
2835 178 2 14.137866859823042 5.991797114431903 1.9363807331825877 0 0 1
2958 185 2 16.47178897790289 4.844784640231027 0.13314685794162068 0 0 1
2960 185 2 16.398949941379836 4.7561768612798705 1.58636265613448 0 0 1
2959 185 2 16.919481080778215 5.1999038685018775 0.8742496209349705 0 0 1
1400 88 1 17.48065558093998 4.088061872629493 1.0024021208537015 0 0 0
1208 76 1 17.820664300707204 4.868586436489343 0.23518643962822255 0 0 0
1209 76 1 18.324736484515746 4.821332583534472 1.0236601255899038 0 0 0
1398 88 1 18.546786971620776 4.051270520270726 0.3099911714075306 0 0 0
1397 88 1 19.54266458304523 3.93771040783677 0.14213910771555135 0 0 0
1196 75 1 20.053626107201357 6.080481635992851 1.2778177803662607 0 0 0
465 30 1 4.955153635998653 6.956108870735825 0.3389292848702478 0 0 0
466 30 1 5.440322587935887 7.663161545940658 0.7223754278661527 0 0 0
3005 188 2 5.844537620116259 6.8692492222659896 31.610955938410566 0 0 0
2328 146 2 6.788401629093127 6.628110426278905 0.010597330825180513 0 0 1
2329 146 2 6.7939375835673745 5.922540097355436 0.6366213902628534 0 0 1
1327 83 1 5.757843357281112 6.655628645083843 0.9799463759890086 0 0 0
3138 197 2 7.759063988684737 5.3727229745388065 0.8712112530892837 0 0 1
3137 197 2 7.753352475949293 6.225806047957061 0.27167333531210563 0 0 1
2334 146 2 8.806269497023093 6.877540788607037 1.3824672198977634 0 0 1
2335 146 2 8.721413776257675 6.1304312605810924 0.8107875892779678 0 0 1
2272 142 2 11.207813802665191 7.14479160615934 0.8891852946093736 0 0 1
1163 73 1 11.932210795947306 6.791072097093328 31.949789203825194 0 0 -1
2271 142 2 10.551597466394576 6.895244654861337 0.21625779928333028 0 0 1
1162 73 1 12.062386551803518 6.133643115846044 0.6430583394967279 0 0 0
2260 142 2 13.121070868458698 6.36425728901977 0.5722585667577097 0 0 1
3167 198 2 12.69068714217732 7.795663365752037 2.055893209476322 0 0 1
2261 142 2 13.31861840058409 6.437096294542178 31.62899370790918 0 0 0
2833 178 2 14.618263920519146 6.689897884865469 1.057037363056386 0 0 1
3103 194 2 14.191042801182645 7.647213426814741 1.3442729274898644 0 0 1
3181 199 2 15.679408346661836 5.706677763376656 0.6144483817920701 0 0 1
3182 199 2 15.168358422706028 6.337243902076953 0.08263676124674146 0 0 1
3180 199 2 16.125209815131615 6.0465887969668755 31.809779464926123 0 0 0
2837 178 2 15.781892919894311 5.866199551102025 1.6903487876704293 0 0 1
3213 201 2 18.43020426422035 6.745051655753912 31.830972926812304 0 0 0
3212 201 2 18.710744809748384 6.45265781049301 0.7037051010733973 0 0 1
1395 88 1 19.236727337786874 5.325735666620097 0.5201504023957962 0 0 0
1396 88 1 19.615168537917068 4.896240725731507 31.7664456846108 0 0 -1
1199 75 1 19.43474849900071 7.299114368770767 0.08519764005725758 0 0 0
1394 88 1 18.998909373787907 5.64975934212188 1.348904007564453 0 0 0
1197 75 1 19.94153874265271 6.18287399902615 0.32309382665503866 0 0 0
1198 75 1 19.88100106534779 6.967194342616209 0.8911887987152175 0 0 0
1319 83 1 4.06009750101505 8.287992657802043 1.700679976689801 0 0 0
2079 130 2 3.800374052408846 8.803298421751817 0.3902881919970241 0 0 1
3004 188 2 5.263281662999624 7.622352693761977 31.291922512709103 0 0 0
467 30 1 6.269924401747218 7.468522818464212 0.35323946696311004 0 0 0
2078 130 2 4.676232194759553 8.823310822338858 0.07837811640809819 0 0 1
468 30 1 6.559351313408097 7.625528251318828 31.438871118924133 0 0 -1
469 30 1 7.24839728830185 7.853240941421696 0.02727154719281357 0 0 0
2656 166 2 8.192440010978398 7.294113211354501 0.050845472927977454 0 0 1
470 30 1 7.127810023360505 7.765905315658949 0.9929713275254954 0 0 0
2395 150 2 9.956346271921136 8.474231708319124 0.13328494964417517 0 0 1
2396 150 2 9.648603097611796 8.966678872253906 0.9787117064916852 0 0 1
2400 150 2 9.126583696854032 7.973897022740262 0.5370123227241201 0 0 1
2270 142 2 10.94290386325299 7.3246415876579904 31.51474972464572 0 0 0
3165 198 2 12.035266612565515 7.856415947039759 0.46256785637651315 0 0 1
2398 150 2 10.871919809110421 8.040023644018406 0.4765213248046089 0 0 1
3166 198 2 12.356713485392934 7.458220802732044 1.2445295029746717 0 0 1
2720 170 2 12.805643474663057 8.652687634293509 0.20262646816682522 0 0 1
2258 142 2 13.219681228966063 7.590719352595768 31.458803765287517 0 0 0
2952 185 2 13.944370627122114 8.075273245611411 0.14239814441226376 0 0 1
2740 172 2 15.70712464650109 8.055061459012576 0.8702500904478777 0 0 1
3183 199 2 15.878220850191292 6.7201155966411035 0.6240251139038956 0 0 1
2741 172 2 15.866460865495615 8.738281995851805 0.18785031553348222 0 0 1
1390 87 1 16.360209055445072 9.330508289419434 1.0186250954324696 0 0 0
3221 202 2 16.80761358963755 7.536595620462675 0.6256903327229386 0 0 1
3219 202 2 17.69956346419478 7.86450501404404 0.19134454522734431 0 0 1
3218 202 2 18.274934764296106 8.528586239547751 0.7649596959145535 0 0 1
1389 87 1 16.95022111382291 8.717503637957964 0.6315866611648375 0 0 0
3217 202 2 18.99876611800326 8.344684508485312 0.15443572281803944 0 0 1
3075 193 2 19.542814713284848 7.7579076526353 1.4600771636966146 0 0 1
2080 130 2 4.169227000859712 9.274411610293264 1.201805540613368 0 0 1
2994 188 2 2.5401685049708664 11.24075770706021 1.8980518247636962 0 0 1
2993 188 2 1.9230423714856626 11.430200248153342 2.6229504163188686 0 0 1
2999 188 2 3.6102574439126833 10.212413488450958 31.7378407050887 0 0 0
2077 130 2 4.898329831911444 9.653652419726075 0.403232935100876 0 0 1
1945 122 2 5.790436374004323 8.462359376189728 31.803778315227305 0 0 0
1946 122 2 5.293651605168037 8.90125999272798 31.094102302258115 0 0 0
1943 122 2 7.402950044652712 8.968542344480738 31.964718789704982 0 0 0
1942 122 2 6.726709808450732 8.696713138210567 31.260350134902637 0 0 0
2167 136 2 7.530275745010233 9.977597614207442 0.7210150936428268 0 0 1
3009 189 2 8.369791960709247 9.263986462337929 0.36117087086022387 0 0 1
2161 136 2 9.676085990147799 10.145484834124211 1.7871961043542113 0 0 1
2800 175 2 10.291352531939102 10.257478784397021 0.12326521978854237 0 0 1
3164 198 2 11.707728319765613 8.757730446695593 0.3584712327498278 0 0 1
3120 195 2 11.258738917477068 10.147901061521 0.6692007072715348 0 0 1
2162 136 2 10.30078582158851 9.80414351784484 1.1628517385727122 0 0 1
2719 170 2 13.470969646751966 9.090913457827433 0.7227312476540636 0 0 1
2360 148 2 12.192601986295385 10.37764125059063 1.2116893362279189 0 0 1
2432 152 2 13.219652700511025 8.780340282278877 30.9970695006191 0 0 0
1568 98 1 14.60249244924715 9.924026326435518 1.7361435290226277 0 0 0
1567 98 1 15.114735401828552 9.599483334793367 1.0251797017261803 0 0 0
1565 98 1 14.791135203169569 8.68997350851953 0.25386806465853 0 0 0
1566 98 1 14.434853439832633 8.908698590114584 1.1775237391790354 0 0 0
3259 204 2 16.22173402750259 10.373879668536386 1.6027597260383617 0 0 1
1391 87 1 15.946608263688585 8.977817923099744 1.8229937033498629 0 0 0
3088 193 2 19.718877362213654 9.426266545256427 0.6101932002484267 0 0 1
3263 204 2 17.067172766559878 9.993511459942734 0.251146050483795 0 0 1
3264 204 2 17.89477845119859 10.072124538658548 0.6854497106769567 0 0 1
3262 204 2 17.11294556192843 10.940438245386467 0.45517504108319295 0 0 1
2918 183 2 18.73247839046224 9.975826385031123 31.470037394316275 0 0 0
3073 193 2 20.71304634156102 7.950376301410654 0.7955121588296773 0 0 1
1952 122 2 3.338609637501559 9.897821684312007 0.7899841331409237 0 0 1
1948 122 2 5.501909140694773 10.444386314040184 0.06325303756839763 0 0 1
1949 122 2 4.997735917463439 11.227505479333379 31.867143431924895 0 0 0
1947 122 2 5.280465512844136 9.84051371928103 31.309879833427235 0 0 0
2476 155 2 6.075060460283243 12.158185804256318 0.16073126970221244 0 0 1
3016 189 2 6.160221124592806 10.035043166571533 0.6920216477269323 0 0 1
2168 136 2 7.744905357821308 10.871089161673249 0.7121105484725688 0 0 1
3015 189 2 6.475379513278487 9.524745253980203 31.95090001573768 0 0 0
2169 136 2 8.26476554903609 11.656870516327912 0.6880858000726049 0 0 1
3013 189 2 7.489275408745655 9.95530216006302 31.417657754911804 0 0 0
2163 136 2 9.420678621452954 9.981017396744814 0.7722493587551511 0 0 1
2164 136 2 8.518817483898655 10.287302968248683 0.4800661470935807 0 0 1
3119 195 2 11.363880549654066 10.928742293392768 1.1988167322013303 0 0 1
2415 151 2 9.289541341100522 11.637565408554174 1.1486138751241446 0 0 1
2358 148 2 13.302720229910788 10.564468415232229 31.963232741718443 0 0 0
2588 162 2 13.112678167770673 11.815260720885943 0.7180420659891733 0 0 1
2587 162 2 12.87727573043975 12.224728996561385 1.5530228933197454 0 0 1
3131 196 2 11.830122596832584 11.080517804264806 0.03204854102324632 0 0 1
2424 152 2 14.53283002985323 10.639769602416024 0.7735868763995659 0 0 1
2423 152 2 15.154304568155062 10.74264091820611 1.4942894604353802 0 0 1
2422 152 2 14.838418873144803 11.606938358112721 1.3875707689861707 0 0 1
1475 93 1 15.61331286775817 10.936424883180702 0.44760013771888785 0 0 0
1482 93 1 15.206961954688204 12.59250346719795 1.197267018003171 0 0 0
1474 93 1 14.954612048722407 11.629600096129746 0.20248376821022324 0 0 0
3260 204 2 16.8313421112383 10.660497789432432 2.26738480641367 0 0 1
3258 204 2 15.51505692764253 9.976933994110073 2.1805924296604196 0 0 1
1480 93 1 16.232124700832053 11.707189957580125 0.016852694450809974 0 0 0
1479 93 1 15.964274247809428 11.355291760056788 31.203920249239285 0 0 -1
3261 204 2 16.962765486409168 10.993979366700438 1.4253519714271887 0 0 1
1379 87 1 18.078924307359806 11.38663768264397 0.18517343596216915 0 0 0
1381 87 1 18.090286639090465 11.428492553471797 1.6387208167795924 0 0 0
1378 87 1 18.363145775467224 11.599955561635312 31.25949774443046 0 0 -1
1380 87 1 18.70400407385853 11.024374051495794 0.9253176388331662 0 0 0
1950 122 2 4.684055365266435 11.258981170184875 0.764231726592145 0 0 1
2608 163 2 4.301766544075485 12.630418556283262 31.119451736019403 0 0 0
2607 163 2 4.67899178490672 13.191620569177186 30.434805205871644 0 0 0
2606 163 2 5.270048764923461 12.540264343439038 30.10046529333604 0 0 0
2475 155 2 5.992649629558013 11.259194261729357 0.47639075252641105 0 0 1
2201 138 2 6.495903005747241 13.007792774783631 31.785204252265334 0 0 0
2480 155 2 6.911786260243089 12.264641869812133 0.7815831527793119 0 0 1
2474 155 2 6.786849697931163 11.128707798345689 1.0132069644828232 0 0 1
2763 173 2 7.141746522051856 11.921731166726197 31.812648568600093 0 0 0
2414 151 2 9.422849055381045 12.180223475575442 0.4308833682425139 0 0 1
2337 147 2 7.89910819410361 10.98711267180923 31.69748882874949 0 0 0
2416 151 2 9.58804556175749 10.997039791817679 0.4800412390087486 0 0 1
2580 162 2 11.575769740456174 12.363362006186232 0.8369949239999321 0 0 1
3132 196 2 12.672873604836969 11.426985416423504 31.89728024401978 0 0 0
3133 196 2 12.460712471055396 12.3651061523643 0.045269974186066854 0 0 1
2579 162 2 11.96209538786847 13.287469363050048 1.0215432862484368 0 0 1
732 46 1 13.646192804791943 13.000609232226832 1.3918938078740202 0 0 0
3136 196 2 14.064599218180664 11.534175285131886 0.6682831820639704 0 0 1
3134 196 2 13.415552675342035 12.630779251835632 0.355612894824464 0 0 1
3135 196 2 14.382738478254836 12.458977043148499 0.4228152548238991 0 0 1
730 46 1 14.782793013694013 14.319822770487583 1.5246653287412169 0 0 0
2896 181 2 15.61467928444768 13.55287538592281 1.0750956554154998 0 0 1
2895 181 2 16.012893434280773 13.152326353151844 0.2786487120328875 0 0 1
2894 181 2 16.702987921081053 12.814246257213023 0.8564061853472943 0 0 1
2924 183 2 17.309667608624217 11.16640134503049 31.360115339732328 0 0 0
2892 181 2 17.990525826034062 12.792441451575948 0.26541664999434744 0 0 1
2928 183 2 18.947596141628885 12.558206480891092 30.244524754463157 0 0 0
2228 140 2 2.9421698479914293 12.488446818059607 0.2291737429761374 0 0 1
2229 140 2 3.0317204674824203 13.46118842048592 0.2946219160095259 0 0 1
2225 140 2 4.573603264325509 12.187701794416894 0.06442274679484868 0 0 1
2235 140 2 3.504711461852196 14.65839417165338 2.6455088641537237 0 0 1
2230 140 2 3.838650905710951 13.996194788764937 0.6981867251445101 0 0 1
2231 140 2 4.3804141514028 13.899480672856226 1.5472501150440197 0 0 1
2435 153 2 5.030445302724566 13.229789318924798 0.36518343803238346 0 0 1
2197 138 2 5.893451015759635 13.660521296039084 1.5899056939322391 0 0 1
2200 138 2 6.049591409229978 13.13579844151215 0.6409567231938446 0 0 1
2762 173 2 7.991882236858742 12.343447733864874 31.85060081516321 0 0 0
2199 138 2 6.933336594487495 13.477258214442093 0.7385002778868827 0 0 1
2413 151 2 8.997769387870234 12.822259883687973 31.887836410116368 0 0 0
2056 129 2 8.829737542865757 15.148663401673463 0.2732618603185814 0 0 1
2055 129 2 8.700207479946156 15.370345486709057 1.1886197646797052 0 0 1
3126 196 2 9.556553860398537 13.832661299881403 0.13520283817595502 0 0 1
942 59 1 10.607512202750929 14.16520427589116 0.9819437301929202 0 0 0
2578 162 2 11.218944442589239 13.382080443775068 0.36565764684617164 0 0 1
2577 162 2 11.815470770430185 13.050040416336456 31.698452830192313 0 0 0
2868 180 2 14.05339120365948 13.69147051570318 0.6061783704986997 0 0 1
2869 180 2 13.802159307202192 14.289789603212656 1.3416428759977188 0 0 1
729 46 1 14.745061894380814 14.507287125643606 0.6275122629941773 0 0 0
2867 180 2 14.935605878319194 13.550465719503942 0.1998658638451613 0 0 1
3246 203 2 16.963150167220896 13.960912931317498 0.6643453737821372 0 0 1
2893 181 2 17.165012009027684 12.514837708922027 31.999769910762737 0 0 0
3245 203 2 17.18776908102464 13.587270406448651 31.79858843694845 0 0 0
3248 203 2 16.5737109891768 14.872944216276293 0.633026479269181 0 0 1
3247 203 2 16.36264170287988 14.400866007332635 1.4205323878550697 0 0 1
2884 181 2 17.255553264723776 14.953341050527113 31.859746812985012 0 0 0
2890 181 2 17.943424724105135 13.463788747078368 30.930242928332294 0 0 0
2891 181 2 18.624939848765095 13.143458257976626 31.605351116506988 0 0 0
722 46 1 17.99240386065013 13.862822321327732 1.2905484028567036 0 0 0
2000 125 2 18.697431493496598 11.3401316422667 2.6548182527053537 0 0 1
2234 140 2 3.1597633280440602 14.154599212849364 1.924481889946825 0 0 1
2233 140 2 3.8807532831957263 14.742844650713874 1.654686370411742 0 0 1
2232 140 2 4.630109003661101 14.745431086392243 1.0998301012730596 0 0 1
2195 138 2 5.658516910424308 14.584933857620202 31.88976951190827 0 0 0
2194 138 2 5.7236686200691915 15.412781610584297 0.2939129234782057 0 0 1
2196 138 2 5.668344560485151 14.101098184434212 0.7414731339632528 0 0 1
2198 138 2 6.610112866645269 14.256752840068415 1.300496240825726 0 0 1
2193 138 2 5.786489103908646 15.483731978233301 1.2400100719310463 0 0 1
2061 129 2 6.676666435681007 14.879241282558645 0.4815327669550165 0 0 1
2062 129 2 6.632517689411739 14.107190263663455 31.88957374392286 0 0 0
2063 129 2 7.353818472010955 14.681223440423867 31.763261737531185 0 0 0
2054 129 2 9.334283596931986 16.03220706348034 1.0117672401344122 0 0 1
2053 129 2 10.257009417843303 16.022639292258923 0.9098986135308942 0 0 1
1641 103 2 11.067165523240151 15.320753566206958 0.7221539960632197 0 0 1
1642 103 2 11.354363656515329 16.077752137769387 0.25202590193655233 0 0 1
940 59 1 9.891756144478425 14.967594466789388 0.6269716180509171 0 0 0
939 59 1 10.343778190912024 15.507048452098633 31.961491518982697 0 0 -1
2870 180 2 13.50056612714727 14.670683138339012 0.4923824447522285 0 0 1
2570 161 2 12.137413419450745 14.087629402921957 31.936468641259516 0 0 0
2569 161 2 11.634494933728247 14.889213026852703 31.808703467763007 0 0 0
2516 158 2 14.583116638856328 15.416011294643154 31.646667267826395 0 0 0
2871 180 2 13.100777769125996 15.467370843689778 0.445898409754201 0 0 1
2517 158 2 15.412421596435136 15.566358262266766 0.07969435731150193 0 0 1
727 46 1 16.092241513676118 15.476861300185133 1.3605014350352562 0 0 0
726 46 1 16.47348752642605 16.24917138617321 1.8094456868067739 0 0 0
723 46 1 17.534582755098867 14.69312098259012 1.0644062149079832 0 0 0
724 46 1 17.122901901497535 15.09936883236977 1.871159424146835 0 0 0
2886 181 2 17.165194002700495 15.80367753667066 0.8889799354160165 0 0 1
2887 181 2 17.928104051188942 15.724546746729418 0.220251196033333 0 0 1
2888 181 2 18.511571133201915 15.035917189812123 31.902788250407742 0 0 0
721 46 1 18.90068844402581 13.89688135923284 0.915419771688717 0 0 0
933 59 1 9.525955400425758 17.273992487568215 0.6431560884690919 0 0 0
932 59 1 8.872139704635046 16.811406567459453 0.11899121685277843 0 0 0
934 59 1 9.823814154480637 17.74885092255663 1.4218026366315075 0 0 0
936 59 1 10.53101201290753 17.11855237045816 0.8154750047807323 0 0 0
937 59 1 10.25627420235403 16.635103584653525 31.969766249337457 0 0 -1
935 59 1 10.75000532573451 17.625587323780916 1.596646780153098 0 0 0
1644 103 2 12.330555239390213 16.761371586043342 1.5644725808651023 0 0 1
1646 103 2 11.544892146240162 17.915750056365145 0.4589050785632847 0 0 1
1645 103 2 11.721859301355394 17.344396817016893 1.219429501337995 0 0 1
1643 103 2 12.104195193042528 15.986700937949717 0.8769149621736159 0 0 1
1094 69 1 13.383363239922309 17.688936875764362 1.3475081457938438 0 0 0
2872 180 2 12.38630476175497 15.777997020688682 31.728575549997295 0 0 0
2522 158 2 14.779616715029148 16.226584124197323 31.02066516881631 0 0 0
1095 69 1 13.311323054729884 16.732451565027922 1.1319289618129231 0 0 0
2523 158 2 14.123044446848454 16.801365772017537 31.36970898824336 0 0 0
1099 69 1 15.690912777637012 17.457645621164996 0.03434369414517353 0 0 0
1098 69 1 14.985211181702768 16.783981086618525 0.048580734713101086 0 0 0
725 46 1 17.411278317039553 16.008723987156944 1.8950682143279063 0 0 0
1249 79 1 16.014583676266156 18.012211688782227 1.9205820732602383 0 0 0
1093 69 1 12.967163453297582 18.50869707740953 1.6534614105738743 0 0 0
1091 69 1 11.851254560711872 17.454180506270777 2.2171402245871517 0 0 0
1092 69 1 12.796798648675148 17.681947457075402 2.2147675984080317 0 0 0
2524 158 2 13.966273260427972 17.175365370253516 0.24503215362653702 0 0 1
2525 158 2 13.760100167275912 18.081488534488532 0.4339367279974828 0 0 1
2851 179 2 10.577539440341615 1.2596593740094892 2.386470665658558 0 0 1
2852 179 2 11.045893135263212 1.3592848662602093 3.241932974380373 0 0 1
2860 179 2 10.190092689611895 3.521101295065702 2.755856750266643 0 0 1
2861 179 2 9.512054447079276 3.4629327658291356 2.0706539669000166 0 0 1
2859 179 2 10.251962383008445 2.645584840286083 2.360206110204626 0 0 1
2858 179 2 10.527119094253019 2.4935099340318008 3.252196160326964 0 0 1
3030 190 2 12.118883817692861 2.02402583162838 2.25818621882068 0 0 1
3032 190 2 11.921948887059372 3.0570593637241092 2.307272392418198 0 0 1
3031 190 2 11.904595730702857 2.544977126295975 3.1058344546414878 0 0 1
1581 99 1 14.627329367903213 2.8207445686298893 2.886999176052605 0 0 0
1580 99 1 13.686497377084319 2.7834613906713637 3.0794475809768778 0 0 0
3040 190 2 14.541777830812945 3.2937790171347587 1.4843949084929768 0 0 1
1534 96 1 18.08765798052481 2.846160553432467 1.6037287163691383 0 0 0
2305 145 2 3.6483440214456944 3.2079536585802324 3.149832609127705 0 0 1
2623 164 2 7.18264224036228 2.1018592528388034 1.5849016903807993 0 0 1
2624 164 2 6.53026671196756 2.2573163401934573 0.8701808737138969 0 0 1
2097 132 2 7.176632097942796 3.1660864544853267 2.6475667904594338 0 0 1
2098 132 2 7.821947146391475 3.6211437978473695 2.1301825537060246 0 0 1
2099 132 2 8.273343605964083 2.8980067173981703 1.6622978157776902 0 0 1
2828 177 2 10.46245660380319 3.5892400756176706 1.4280889155141268 0 0 1
2102 132 2 8.712173298845565 3.675726910623651 2.7051990169337694 0 0 1
2827 177 2 11.220181042116355 3.009162277369207 1.6607355598768432 0 0 1
1971 124 2 11.471108615168145 4.917340863390908 3.025392326977631 0 0 1
3034 190 2 11.712324513897125 4.372523078474978 1.5724734063539165 0 0 1
3033 190 2 11.307707345493608 3.818921683446216 2.3391936133986464 0 0 1
1360 85 1 14.568394105075184 4.985174379723457 1.3598372232652947 0 0 0
3187 200 2 15.728127173844236 3.966837554891627 2.553308729509388 0 0 1
1536 96 1 19.063580818786384 3.7391564973111606 2.450226302939666 0 0 0
1535 96 1 18.462393760997347 3.7259981450380955 1.6741170207644944 0 0 0
1137 72 1 17.70957720705428 4.726559875908231 1.7889170437621 0 0 0
1532 96 1 17.6764095628311 3.9879576414742313 2.6294284695569154 0 0 0
1533 96 1 17.89697955126156 3.0509092795043116 2.571712079339668 0 0 0
683 43 1 4.134369681799102 5.337815262306795 2.810561570539506 0 0 0
684 43 1 4.538758035665543 5.577232327535582 3.6701600131110075 0 0 0
682 43 1 4.873227311810911 6.097145675116849 2.706640631004426 0 0 0
681 43 1 5.547595310540354 5.388893168935462 2.844125115532171 0 0 0
1925 121 2 7.696342971505307 4.695508134212785 1.6471546757120497 0 0 1
1926 121 2 8.405104477413598 4.754292199496462 2.221301810184126 0 0 1
1927 121 2 9.14768021491607 4.465668662972608 1.689187005932406 0 0 1
2688 168 2 6.8607275578804945 4.119587948356486 2.0073505343887192 0 0 1
1928 121 2 9.992592385765425 4.394818154435281 2.1509260586941568 0 0 1
1929 121 2 10.178489772309641 5.270770764792685 2.319039238980665 0 0 1
2658 167 2 12.09995421190585 5.852902462001668 3.014129528920012 0 0 1
2662 167 2 10.597041645255612 6.233090046123002 1.3205489835697493 0 0 1
2661 167 2 11.406317221662079 5.71083003465521 1.340938295275034 0 0 1
1930 121 2 10.803785896827243 5.959484467074959 2.5609519803304153 0 0 1
2659 167 2 12.200133252854192 6.675343919700365 2.6256813695748304 0 0 1
2657 167 2 12.110576076219695 5.54259629479308 2.1103880871708958 0 0 1
1355 85 1 12.26895311106576 4.420895930129808 2.485750077876298 0 0 0
1356 85 1 12.785184896731487 4.809244943051184 1.754170403265206 0 0 0
1357 85 1 13.532116623451227 5.012503869488262 2.369282626508517 0 0 0
2991 187 2 13.110973341941795 6.007351543901322 2.244232565138596 0 0 1
1359 85 1 14.460895899199278 4.217926234384595 1.9608950136335743 0 0 0
1358 85 1 14.479268493420028 4.973533829463385 2.55433315387886 0 0 0
1139 72 1 16.72829092576121 4.307738062065484 2.41526281126265 0 0 0
2836 178 2 14.998066453547747 6.288121883691105 2.165404718299601 0 0 1
1138 72 1 17.27183216563996 5.165452918934633 2.566599030960279 0 0 0
1140 72 1 16.207320152497296 5.012881988868499 2.899153122263948 0 0 0
1191 75 1 18.32202852622424 4.884526028380118 2.7420063320657335 0 0 0
1210 76 1 17.968308637989008 5.74351941270115 1.1260389185508557 0 0 0
1393 88 1 19.31151705345531 5.903635284075719 2.2133754183512795 0 0 0
1190 75 1 19.157475087117387 4.745773348184061 3.335545466799221 0 0 0
1193 75 1 19.894233465247744 4.918214670872712 2.6445810000529804 0 0 0
1192 75 1 19.104781840618855 4.85767665844911 2.231317235208833 0 0 0
1194 75 1 19.961905884881354 4.341781937919051 1.86399016241522 0 0 0
1321 83 1 4.22241643782601 6.518112377099249 1.1475470438161648 0 0 0
1322 83 1 4.920072669396477 6.055540693437098 1.5794113579918048 0 0 0
1323 83 1 5.830048494778917 6.152937202338607 1.893840371558342 0 0 0
1325 83 1 5.449835666407335 7.105761484077047 2.7601301867582664 0 0 0
2330 146 2 7.012654033539207 6.288795421840852 1.4845205826902608 0 0 1
1326 83 1 5.269067302341862 7.041044754146927 1.7832084184572 0 0 0
2331 146 2 7.797254857280726 6.807253606502689 1.1054858486722805 0 0 1
2333 146 2 8.6662348261569 6.3123853945477135 2.207399320535381 0 0 1
2332 146 2 7.955009293379927 6.016019261268286 1.6488560969467003 0 0 1
2366 148 2 10.56510944005549 7.07714304462398 2.0790649378582113 0 0 1
2368 148 2 9.332513343404452 5.6363147602014285 2.0217730651319883 0 0 1
2367 148 2 9.784582475824827 6.513154887333666 2.132567008009728 0 0 1
2365 148 2 11.242083117663633 7.478995125896326 2.6528273782848095 0 0 1
2364 148 2 11.93536965611073 8.201644475028921 2.674329269852213 0 0 1
2660 167 2 11.582219500711922 6.42213504025863 1.988241288891293 0 0 1
2992 187 2 12.589132587686766 6.531383891202226 1.5769898033990883 0 0 1
3168 198 2 13.21663572232489 7.0473179888698425 2.268421363318192 0 0 1
2990 187 2 13.300098191110058 5.6106691669204185 1.423392091328495 0 0 1
3101 194 2 14.300202664479587 7.420353464688673 2.403460595887897 0 0 1
2834 178 2 13.725154910186722 6.650629509562094 1.3625335098308853 0 0 1
3184 199 2 16.731355106628115 6.322039132405132 0.7272124023037665 0 0 1
1152 72 1 14.196862604791677 5.997616753233595 3.0049216165524637 0 0 0
1151 72 1 13.799852222259231 5.804263087430389 3.9365493871857167 0 0 0
2838 178 2 16.674787048393547 5.960077748707862 2.07898720873743 0 0 1
2839 178 2 16.558466361974176 6.836600893512051 2.3244432229706926 0 0 1
1211 76 1 17.93945466313101 6.5699545775458565 1.5687319201089718 0 0 0
3210 201 2 19.006800758758896 6.931223436873902 1.6952069550159958 0 0 1
1212 76 1 17.562258945135678 7.326260363065183 1.856084501885769 0 0 0
3209 201 2 19.74682959234377 6.971874512305279 2.328263970782968 0 0 1
836 53 1 20.587201914819676 6.497563612884244 2.3792033646317314 0 0 0
1195 75 1 20.18573797184266 5.268449683302633 1.6297407375331854 0 0 0
1318 83 1 3.445517948164554 8.591615210859098 2.381702481640917 0 0 0
1320 83 1 4.315401263135087 7.424549383353409 1.385573298976338 0 0 0
2508 157 2 5.000934726630272 8.064084474545316 2.219065961828052 0 0 1
2074 130 2 6.103320243422928 8.352281782467706 1.5215757448683433 0 0 1
474 30 1 7.075126283783126 7.666286472205217 2.0080655627008457 0 0 0
1328 83 1 6.192603976360637 7.2133796675801936 1.5419839254651555 0 0 0
471 30 1 8.022941101266873 8.21252853349232 0.7601761980224888 0 0 0