LAMMPS data file for polymer chains

3264 atoms
3128 bonds

2 atom types
1 bond types

0.0 32.0 xlo xhi
0.0 32.0 ylo yhi
0.0 32.0 zlo zhi

Masses

1 1.0  # Type A
2 1.0  # Type B

Atoms # molecular

1 1 1 0.000 0.000 0.000
2 1 1 0.000 0.000 0.604
3 1 1 0.000 0.000 1.208
4 1 1 0.000 0.000 1.811
5 1 1 0.000 0.000 2.415
6 1 1 0.000 0.000 3.019
7 1 1 0.000 0.000 3.623
8 1 1 0.000 0.000 4.226
9 1 1 0.000 0.000 4.830
10 1 1 0.000 0.000 5.434
11 1 1 0.000 0.000 6.038
12 1 1 0.000 0.000 6.642
13 1 1 0.000 0.000 7.245
14 1 1 0.000 0.000 7.849
15 1 1 0.000 0.000 8.453
16 1 1 0.000 0.000 9.057
17 1 1 0.000 0.000 9.660
18 1 1 0.000 0.000 10.264
19 1 1 0.000 0.000 10.868
20 1 1 0.000 0.000 11.472
21 1 1 0.000 0.000 12.075
22 1 1 0.000 0.000 12.679
23 1 1 0.000 0.000 13.283
24 1 1 0.000 0.000 13.887
25 2 1 3.441 0.000 0.000
26 2 1 3.441 0.000 0.604
27 2 1 3.441 0.000 1.208
28 2 1 3.441 0.000 1.811
29 2 1 3.441 0.000 2.415
30 2 1 3.441 0.000 3.019
31 2 1 3.441 0.000 3.623
32 2 1 3.441 0.000 4.226
33 2 1 3.441 0.000 4.830
34 2 1 3.441 0.000 5.434
35 2 1 3.441 0.000 6.038
36 2 1 3.441 0.000 6.642
37 2 1 3.441 0.000 7.245
38 2 1 3.441 0.000 7.849
39 2 1 3.441 0.000 8.453
40 2 1 3.441 0.000 9.057
41 2 1 3.441 0.000 9.660
42 2 1 3.441 0.000 10.264
43 2 1 3.441 0.000 10.868
44 2 1 3.441 0.000 11.472
45 2 1 3.441 0.000 12.075
46 2 1 3.441 0.000 12.679
47 2 1 3.441 0.000 13.283
48 2 1 3.441 0.000 13.887
49 3 1 6.882 0.000 0.000
50 3 1 6.882 0.000 0.604
51 3 1 6.882 0.000 1.208
52 3 1 6.882 0.000 1.811
53 3 1 6.882 0.000 2.415
54 3 1 6.882 0.000 3.019
55 3 1 6.882 0.000 3.623
56 3 1 6.882 0.000 4.226
57 3 1 6.882 0.000 4.830
58 3 1 6.882 0.000 5.434
59 3 1 6.882 0.000 6.038
60 3 1 6.882 0.000 6.642
61 3 1 6.882 0.000 7.245
62 3 1 6.882 0.000 7.849
63 3 1 6.882 0.000 8.453
64 3 1 6.882 0.000 9.057
65 3 1 6.882 0.000 9.660
66 3 1 6.882 0.000 10.264
67 3 1 6.882 0.000 10.868
68 3 1 6.882 0.000 11.472
69 3 1 6.882 0.000 12.075
70 3 1 6.882 0.000 12.679
71 3 1 6.882 0.000 13.283
72 3 1 6.882 0.000 13.887
73 4 1 10.323 0.000 0.000
74 4 1 10.323 0.000 0.604
75 4 1 10.323 0.000 1.208
76 4 1 10.323 0.000 1.811
77 4 1 10.323 0.000 2.415
78 4 1 10.323 0.000 3.019
79 4 1 10.323 0.000 3.623
80 4 1 10.323 0.000 4.226
81 4 1 10.323 0.000 4.830
82 4 1 10.323 0.000 5.434
83 4 1 10.323 0.000 6.038
84 4 1 10.323 0.000 6.642
85 4 1 10.323 0.000 7.245
86 4 1 10.323 0.000 7.849
87 4 1 10.323 0.000 8.453
88 4 1 10.323 0.000 9.057
89 4 1 10.323 0.000 9.660
90 4 1 10.323 0.000 10.264
91 4 1 10.323 0.000 10.868
92 4 1 10.323 0.000 11.472
93 4 1 10.323 0.000 12.075
94 4 1 10.323 0.000 12.679
95 4 1 10.323 0.000 13.283
96 4 1 10.323 0.000 13.887
97 5 1 13.763 0.000 0.000
98 5 1 13.763 0.000 0.604
99 5 1 13.763 0.000 1.208
100 5 1 13.763 0.000 1.811
101 5 1 13.763 0.000 2.415
102 5 1 13.763 0.000 3.019
103 5 1 13.763 0.000 3.623
104 5 1 13.763 0.000 4.226
105 5 1 13.763 0.000 4.830
106 5 1 13.763 0.000 5.434
107 5 1 13.763 0.000 6.038
108 5 1 13.763 0.000 6.642
109 5 1 13.763 0.000 7.245
110 5 1 13.763 0.000 7.849
111 5 1 13.763 0.000 8.453
112 5 1 13.763 0.000 9.057
113 5 1 13.763 0.000 9.660
114 5 1 13.763 0.000 10.264
115 5 1 13.763 0.000 10.868
116 5 1 13.763 0.000 11.472
117 5 1 13.763 0.000 12.075
118 5 1 13.763 0.000 12.679
119 5 1 13.763 0.000 13.283
120 5 1 13.763 0.000 13.887
121 6 1 17.204 0.000 0.000
122 6 1 17.204 0.000 0.604
123 6 1 17.204 0.000 1.208
124 6 1 17.204 0.000 1.811
125 6 1 17.204 0.000 2.415
126 6 1 17.204 0.000 3.019
127 6 1 17.204 0.000 3.623
128 6 1 17.204 0.000 4.226
129 6 1 17.204 0.000 4.830
130 6 1 17.204 0.000 5.434
131 6 1 17.204 0.000 6.038
132 6 1 17.204 0.000 6.642
133 6 1 17.204 0.000 7.245
134 6 1 17.204 0.000 7.849
135 6 1 17.204 0.000 8.453
136 6 1 17.204 0.000 9.057
137 6 1 17.204 0.000 9.660
138 6 1 17.204 0.000 10.264
139 6 1 17.204 0.000 10.868
140 6 1 17.204 0.000 11.472
141 6 1 17.204 0.000 12.075
142 6 1 17.204 0.000 12.679
143 6 1 17.204 0.000 13.283
144 6 1 17.204 0.000 13.887
145 7 1 20.645 0.000 0.000
146 7 1 20.645 0.000 0.604
147 7 1 20.645 0.000 1.208
148 7 1 20.645 0.000 1.811
149 7 1 20.645 0.000 2.415
150 7 1 20.645 0.000 3.019
151 7 1 20.645 0.000 3.623
152 7 1 20.645 0.000 4.226
153 7 1 20.645 0.000 4.830
154 7 1 20.645 0.000 5.434
155 7 1 20.645 0.000 6.038
156 7 1 20.645 0.000 6.642
157 7 1 20.645 0.000 7.245
158 7 1 20.645 0.000 7.849
159 7 1 20.645 0.000 8.453
160 7 1 20.645 0.000 9.057
161 7 1 20.645 0.000 9.660
162 7 1 20.645 0.000 10.264
163 7 1 20.645 0.000 10.868
164 7 1 20.645 0.000 11.472
165 7 1 20.645 0.000 12.075
166 7 1 20.645 0.000 12.679
167 7 1 20.645 0.000 13.283
168 7 1 20.645 0.000 13.887
169 8 1 24.086 0.000 0.000
170 8 1 24.086 0.000 0.604
171 8 1 24.086 0.000 1.208
172 8 1 24.086 0.000 1.811
173 8 1 24.086 0.000 2.415
174 8 1 24.086 0.000 3.019
175 8 1 24.086 0.000 3.623
176 8 1 24.086 0.000 4.226
177 8 1 24.086 0.000 4.830
178 8 1 24.086 0.000 5.434
179 8 1 24.086 0.000 6.038
180 8 1 24.086 0.000 6.642
181 8 1 24.086 0.000 7.245
182 8 1 24.086 0.000 7.849
183 8 1 24.086 0.000 8.453
184 8 1 24.086 0.000 9.057
185 8 1 24.086 0.000 9.660
186 8 1 24.086 0.000 10.264
187 8 1 24.086 0.000 10.868
188 8 1 24.086 0.000 11.472
189 8 1 24.086 0.000 12.075
190 8 1 24.086 0.000 12.679
191 8 1 24.086 0.000 13.283
192 8 1 24.086 0.000 13.887
193 9 1 27.527 0.000 0.000
194 9 1 27.527 0.000 0.604
195 9 1 27.527 0.000 1.208
196 9 1 27.527 0.000 1.811
197 9 1 27.527 0.000 2.415
198 9 1 27.527 0.000 3.019
199 9 1 27.527 0.000 3.623
200 9 1 27.527 0.000 4.226
201 9 1 27.527 0.000 4.830
202 9 1 27.527 0.000 5.434
203 9 1 27.527 0.000 6.038
204 9 1 27.527 0.000 6.642
205 9 1 27.527 0.000 7.245
206 9 1 27.527 0.000 7.849
207 9 1 27.527 0.000 8.453
208 9 1 27.527 0.000 9.057
209 9 1 27.527 0.000 9.660
210 9 1 27.527 0.000 10.264
211 9 1 27.527 0.000 10.868
212 9 1 27.527 0.000 11.472
213 9 1 27.527 0.000 12.075
214 9 1 27.527 0.000 12.679
215 9 1 27.527 0.000 13.283
216 9 1 27.527 0.000 13.887
217 10 1 0.000 3.855 0.000
218 10 1 0.000 3.855 0.604
219 10 1 0.000 3.855 1.208
220 10 1 0.000 3.855 1.811
221 10 1 0.000 3.855 2.415
222 10 1 0.000 3.855 3.019
223 10 1 0.000 3.855 3.623
224 10 1 0.000 3.855 4.226
225 10 1 0.000 3.855 4.830
226 10 1 0.000 3.855 5.434
227 10 1 0.000 3.855 6.038
228 10 1 0.000 3.855 6.642
229 10 1 0.000 3.855 7.245
230 10 1 0.000 3.855 7.849
231 10 1 0.000 3.855 8.453
232 10 1 0.000 3.855 9.057
233 10 1 0.000 3.855 9.660
234 10 1 0.000 3.855 10.264
235 10 1 0.000 3.855 10.868
236 10 1 0.000 3.855 11.472
237 10 1 0.000 3.855 12.075
238 10 1 0.000 3.855 12.679
239 10 1 0.000 3.855 13.283
240 10 1 0.000 3.855 13.887
241 11 1 3.441 3.855 0.000
242 11 1 3.441 3.855 0.604
243 11 1 3.441 3.855 1.208
244 11 1 3.441 3.855 1.811
245 11 1 3.441 3.855 2.415
246 11 1 3.441 3.855 3.019
247 11 1 3.441 3.855 3.623
248 11 1 3.441 3.855 4.226
249 11 1 3.441 3.855 4.830
250 11 1 3.441 3.855 5.434
251 11 1 3.441 3.855 6.038
252 11 1 3.441 3.855 6.642
253 11 1 3.441 3.855 7.245
254 11 1 3.441 3.855 7.849
255 11 1 3.441 3.855 8.453
256 11 1 3.441 3.855 9.057
257 11 1 3.441 3.855 9.660
258 11 1 3.441 3.855 10.264
259 11 1 3.441 3.855 10.868
260 11 1 3.441 3.855 11.472
261 11 1 3.441 3.855 12.075
262 11 1 3.441 3.855 12.679
263 11 1 3.441 3.855 13.283
264 11 1 3.441 3.855 13.887
265 12 1 6.882 3.855 0.000
266 12 1 6.882 3.855 0.604
267 12 1 6.882 3.855 1.208
268 12 1 6.882 3.855 1.811
269 12 1 6.882 3.855 2.415
270 12 1 6.882 3.855 3.019
271 12 1 6.882 3.855 3.623
272 12 1 6.882 3.855 4.226
273 12 1 6.882 3.855 4.830
274 12 1 6.882 3.855 5.434
275 12 1 6.882 3.855 6.038
276 12 1 6.882 3.855 6.642
277 12 1 6.882 3.855 7.245
278 12 1 6.882 3.855 7.849
279 12 1 6.882 3.855 8.453
280 12 1 6.882 3.855 9.057
281 12 1 6.882 3.855 9.660
282 12 1 6.882 3.855 10.264
283 12 1 6.882 3.855 10.868
284 12 1 6.882 3.855 11.472
285 12 1 6.882 3.855 12.075
286 12 1 6.882 3.855 12.679
287 12 1 6.882 3.855 13.283
288 12 1 6.882 3.855 13.887
289 13 1 10.323 3.855 0.000
290 13 1 10.323 3.855 0.604
291 13 1 10.323 3.855 1.208
292 13 1 10.323 3.855 1.811
293 13 1 10.323 3.855 2.415
294 13 1 10.323 3.855 3.019
295 13 1 10.323 3.855 3.623
296 13 1 10.323 3.855 4.226
297 13 1 10.323 3.855 4.830
298 13 1 10.323 3.855 5.434
299 13 1 10.323 3.855 6.038
300 13 1 10.323 3.855 6.642
301 13 1 10.323 3.855 7.245
302 13 1 10.323 3.855 7.849
303 13 1 10.323 3.855 8.453
304 13 1 10.323 3.855 9.057
305 13 1 10.323 3.855 9.660
306 13 1 10.323 3.855 10.264
307 13 1 10.323 3.855 10.868
308 13 1 10.323 3.855 11.472
309 13 1 10.323 3.855 12.075
310 13 1 10.323 3.855 12.679
311 13 1 10.323 3.855 13.283
312 13 1 10.323 3.855 13.887
313 14 1 13.763 3.855 0.000
314 14 1 13.763 3.855 0.604
315 14 1 13.763 3.855 1.208
316 14 1 13.763 3.855 1.811
317 14 1 13.763 3.855 2.415
318 14 1 13.763 3.855 3.019
319 14 1 13.763 3.855 3.623
320 14 1 13.763 3.855 4.226
321 14 1 13.763 3.855 4.830
322 14 1 13.763 3.855 5.434
323 14 1 13.763 3.855 6.038
324 14 1 13.763 3.855 6.642
325 14 1 13.763 3.855 7.245
326 14 1 13.763 3.855 7.849
327 14 1 13.763 3.855 8.453
328 14 1 13.763 3.855 9.057
329 14 1 13.763 3.855 9.660
330 14 1 13.763 3.855 10.264
331 14 1 13.763 3.855 10.868
332 14 1 13.763 3.855 11.472
333 14 1 13.763 3.855 12.075
334 14 1 13.763 3.855 12.679
335 14 1 13.763 3.855 13.283
336 14 1 13.763 3.855 13.887
337 15 1 17.204 3.855 0.000
338 15 1 17.204 3.855 0.604
339 15 1 17.204 3.855 1.208
340 15 1 17.204 3.855 1.811
341 15 1 17.204 3.855 2.415
342 15 1 17.204 3.855 3.019
343 15 1 17.204 3.855 3.623
344 15 1 17.204 3.855 4.226
345 15 1 17.204 3.855 4.830
346 15 1 17.204 3.855 5.434
347 15 1 17.204 3.855 6.038
348 15 1 17.204 3.855 6.642
349 15 1 17.204 3.855 7.245
350 15 1 17.204 3.855 7.849
351 15 1 17.204 3.855 8.453
352 15 1 17.204 3.855 9.057
353 15 1 17.204 3.855 9.660
354 15 1 17.204 3.855 10.264
355 15 1 17.204 3.855 10.868
356 15 1 17.204 3.855 11.472
357 15 1 17.204 3.855 12.075
358 15 1 17.204 3.855 12.679
359 15 1 17.204 3.855 13.283
360 15 1 17.204 3.855 13.887
361 16 1 20.645 3.855 0.000
362 16 1 20.645 3.855 0.604
363 16 1 20.645 3.855 1.208
364 16 1 20.645 3.855 1.811
365 16 1 20.645 3.855 2.415
366 16 1 20.645 3.855 3.019
367 16 1 20.645 3.855 3.623
368 16 1 20.645 3.855 4.226
369 16 1 20.645 3.855 4.830
370 16 1 20.645 3.855 5.434
371 16 1 20.645 3.855 6.038
372 16 1 20.645 3.855 6.642
373 16 1 20.645 3.855 7.245
374 16 1 20.645 3.855 7.849
375 16 1 20.645 3.855 8.453
376 16 1 20.645 3.855 9.057
377 16 1 20.645 3.855 9.660
378 16 1 20.645 3.855 10.264
379 16 1 20.645 3.855 10.868
380 16 1 20.645 3.855 11.472
381 16 1 20.645 3.855 12.075
382 16 1 20.645 3.855 12.679
383 16 1 20.645 3.855 13.283
384 16 1 20.645 3.855 13.887
385 17 1 24.086 3.855 0.000
386 17 1 24.086 3.855 0.604
387 17 1 24.086 3.855 1.208
388 17 1 24.086 3.855 1.811
389 17 1 24.086 3.855 2.415
390 17 1 24.086 3.855 3.019
391 17 1 24.086 3.855 3.623
392 17 1 24.086 3.855 4.226
393 17 1 24.086 3.855 4.830
394 17 1 24.086 3.855 5.434
395 17 1 24.086 3.855 6.038
396 17 1 24.086 3.855 6.642
397 17 1 24.086 3.855 7.245
398 17 1 24.086 3.855 7.849
399 17 1 24.086 3.855 8.453
400 17 1 24.086 3.855 9.057
401 17 1 24.086 3.855 9.660
402 17 1 24.086 3.855 10.264
403 17 1 24.086 3.855 10.868
404 17 1 24.086 3.855 11.472
405 17 1 24.086 3.855 12.075
406 17 1 24.086 3.855 12.679
407 17 1 24.086 3.855 13.283
408 17 1 24.086 3.855 13.887
409 18 1 27.527 3.855 0.000
410 18 1 27.527 3.855 0.604
411 18 1 27.527 3.855 1.208
412 18 1 27.527 3.855 1.811
413 18 1 27.527 3.855 2.415
414 18 1 27.527 3.855 3.019
415 18 1 27.527 3.855 3.623
416 18 1 27.527 3.855 4.226
417 18 1 27.527 3.855 4.830
418 18 1 27.527 3.855 5.434
419 18 1 27.527 3.855 6.038
420 18 1 27.527 3.855 6.642
421 18 1 27.527 3.855 7.245
422 18 1 27.527 3.855 7.849
423 18 1 27.527 3.855 8.453
424 18 1 27.527 3.855 9.057
425 18 1 27.527 3.855 9.660
426 18 1 27.527 3.855 10.264
427 18 1 27.527 3.855 10.868
428 18 1 27.527 3.855 11.472
429 18 1 27.527 3.855 12.075
430 18 1 27.527 3.855 12.679
431 18 1 27.527 3.855 13.283
432 18 1 27.527 3.855 13.887
433 19 1 0.000 7.711 0.000
434 19 1 0.000 7.711 0.604
435 19 1 0.000 7.711 1.208
436 19 1 0.000 7.711 1.811
437 19 1 0.000 7.711 2.415
438 19 1 0.000 7.711 3.019
439 19 1 0.000 7.711 3.623
440 19 1 0.000 7.711 4.226
441 19 1 0.000 7.711 4.830
442 19 1 0.000 7.711 5.434
443 19 1 0.000 7.711 6.038
444 19 1 0.000 7.711 6.642
445 19 1 0.000 7.711 7.245
446 19 1 0.000 7.711 7.849
447 19 1 0.000 7.711 8.453
448 19 1 0.000 7.711 9.057
449 19 1 0.000 7.711 9.660
450 19 1 0.000 7.711 10.264
451 19 1 0.000 7.711 10.868
452 19 1 0.000 7.711 11.472
453 19 1 0.000 7.711 12.075
454 19 1 0.000 7.711 12.679
455 19 1 0.000 7.711 13.283
456 19 1 0.000 7.711 13.887
457 20 1 3.441 7.711 0.000
458 20 1 3.441 7.711 0.604
459 20 1 3.441 7.711 1.208
460 20 1 3.441 7.711 1.811
461 20 1 3.441 7.711 2.415
462 20 1 3.441 7.711 3.019
463 20 1 3.441 7.711 3.623
464 20 1 3.441 7.711 4.226
465 20 1 3.441 7.711 4.830
466 20 1 3.441 7.711 5.434
467 20 1 3.441 7.711 6.038
468 20 1 3.441 7.711 6.642
469 20 1 3.441 7.711 7.245
470 20 1 3.441 7.711 7.849
471 20 1 3.441 7.711 8.453
472 20 1 3.441 7.711 9.057
473 20 1 3.441 7.711 9.660
474 20 1 3.441 7.711 10.264
475 20 1 3.441 7.711 10.868
476 20 1 3.441 7.711 11.472
477 20 1 3.441 7.711 12.075
478 20 1 3.441 7.711 12.679
479 20 1 3.441 7.711 13.283
480 20 1 3.441 7.711 13.887
481 21 1 6.882 7.711 0.000
482 21 1 6.882 7.711 0.604
483 21 1 6.882 7.711 1.208
484 21 1 6.882 7.711 1.811
485 21 1 6.882 7.711 2.415
486 21 1 6.882 7.711 3.019
487 21 1 6.882 7.711 3.623
488 21 1 6.882 7.711 4.226
489 21 1 6.882 7.711 4.830
490 21 1 6.882 7.711 5.434
491 21 1 6.882 7.711 6.038
492 21 1 6.882 7.711 6.642
493 21 1 6.882 7.711 7.245
494 21 1 6.882 7.711 7.849
495 21 1 6.882 7.711 8.453
496 21 1 6.882 7.711 9.057
497 21 1 6.882 7.711 9.660
498 21 1 6.882 7.711 10.264
499 21 1 6.882 7.711 10.868
500 21 1 6.882 7.711 11.472
501 21 1 6.882 7.711 12.075
502 21 1 6.882 7.711 12.679
503 21 1 6.882 7.711 13.283
504 21 1 6.882 7.711 13.887
505 22 1 10.323 7.711 0.000
506 22 1 10.323 7.711 0.604
507 22 1 10.323 7.711 1.208
508 22 1 10.323 7.711 1.811
509 22 1 10.323 7.711 2.415
510 22 1 10.323 7.711 3.019
511 22 1 10.323 7.711 3.623
512 22 1 10.323 7.711 4.226
513 22 1 10.323 7.711 4.830
514 22 1 10.323 7.711 5.434
515 22 1 10.323 7.711 6.038
516 22 1 10.323 7.711 6.642
517 22 1 10.323 7.711 7.245
518 22 1 10.323 7.711 7.849
519 22 1 10.323 7.711 8.453
520 22 1 10.323 7.711 9.057
521 22 1 10.323 7.711 9.660
522 22 1 10.323 7.711 10.264
523 22 1 10.323 7.711 10.868
524 22 1 10.323 7.711 11.472
525 22 1 10.323 7.711 12.075
526 22 1 10.323 7.711 12.679
527 22 1 10.323 7.711 13.283
528 22 1 10.323 7.711 13.887
529 23 1 13.763 7.711 0.000
530 23 1 13.763 7.711 0.604
531 23 1 13.763 7.711 1.208
532 23 1 13.763 7.711 1.811
533 23 1 13.763 7.711 2.415
534 23 1 13.763 7.711 3.019
535 23 1 13.763 7.711 3.623
536 23 1 13.763 7.711 4.226
537 23 1 13.763 7.711 4.830
538 23 1 13.763 7.711 5.434
539 23 1 13.763 7.711 6.038
540 23 1 13.763 7.711 6.642
541 23 1 13.763 7.711 7.245
542 23 1 13.763 7.711 7.849
543 23 1 13.763 7.711 8.453
544 23 1 13.763 7.711 9.057
545 23 1 13.763 7.711 9.660
546 23 1 13.763 7.711 10.264
547 23 1 13.763 7.711 10.868
548 23 1 13.763 7.711 11.472
549 23 1 13.763 7.711 12.075
550 23 1 13.763 7.711 12.679
551 23 1 13.763 7.711 13.283
552 23 1 13.763 7.711 13.887
553 24 1 17.204 7.711 0.000
554 24 1 17.204 7.711 0.604
555 24 1 17.204 7.711 1.208
556 24 1 17.204 7.711 1.811
557 24 1 17.204 7.711 2.415
558 24 1 17.204 7.711 3.019
559 24 1 17.204 7.711 3.623
560 24 1 17.204 7.711 4.226
561 24 1 17.204 7.711 4.830
562 24 1 17.204 7.711 5.434
563 24 1 17.204 7.711 6.038
564 24 1 17.204 7.711 6.642
565 24 1 17.204 7.711 7.245
566 24 1 17.204 7.711 7.849
567 24 1 17.204 7.711 8.453
568 24 1 17.204 7.711 9.057
569 24 1 17.204 7.711 9.660
570 24 1 17.204 7.711 10.264
571 24 1 17.204 7.711 10.868
572 24 1 17.204 7.711 11.472
573 24 1 17.204 7.711 12.075
574 24 1 17.204 7.711 12.679
575 24 1 17.204 7.711 13.283
576 24 1 17.204 7.711 13.887
577 25 1 20.645 7.711 0.000
578 25 1 20.645 7.711 0.604
579 25 1 20.645 7.711 1.208
580 25 1 20.645 7.711 1.811
581 25 1 20.645 7.711 2.415
582 25 1 20.645 7.711 3.019
583 25 1 20.645 7.711 3.623
584 25 1 20.645 7.711 4.226
585 25 1 20.645 7.711 4.830
586 25 1 20.645 7.711 5.434
587 25 1 20.645 7.711 6.038
588 25 1 20.645 7.711 6.642
589 25 1 20.645 7.711 7.245
590 25 1 20.645 7.711 7.849
591 25 1 20.645 7.711 8.453
592 25 1 20.645 7.711 9.057
593 25 1 20.645 7.711 9.660
594 25 1 20.645 7.711 10.264
595 25 1 20.645 7.711 10.868
596 25 1 20.645 7.711 11.472
597 25 1 20.645 7.711 12.075
598 25 1 20.645 7.711 12.679
599 25 1 20.645 7.711 13.283
600 25 1 20.645 7.711 13.887
601 26 1 24.086 7.711 0.000
602 26 1 24.086 7.711 0.604
603 26 1 24.086 7.711 1.208
604 26 1 24.086 7.711 1.811
605 26 1 24.086 7.711 2.415
606 26 1 24.086 7.711 3.019
607 26 1 24.086 7.711 3.623
608 26 1 24.086 7.711 4.226
609 26 1 24.086 7.711 4.830
610 26 1 24.086 7.711 5.434
611 26 1 24.086 7.711 6.038
612 26 1 24.086 7.711 6.642
613 26 1 24.086 7.711 7.245
614 26 1 24.086 7.711 7.849
615 26 1 24.086 7.711 8.453
616 26 1 24.086 7.711 9.057
617 26 1 24.086 7.711 9.660
618 26 1 24.086 7.711 10.264
619 26 1 24.086 7.711 10.868
620 26 1 24.086 7.711 11.472
621 26 1 24.086 7.711 12.075
622 26 1 24.086 7.711 12.679
623 26 1 24.086 7.711 13.283
624 26 1 24.086 7.711 13.887
625 27 1 27.527 7.711 0.000
626 27 1 27.527 7.711 0.604
627 27 1 27.527 7.711 1.208
628 27 1 27.527 7.711 1.811
629 27 1 27.527 7.711 2.415
630 27 1 27.527 7.711 3.019
631 27 1 27.527 7.711 3.623
632 27 1 27.527 7.711 4.226
633 27 1 27.527 7.711 4.830
634 27 1 27.527 7.711 5.434
635 27 1 27.527 7.711 6.038
636 27 1 27.527 7.711 6.642
637 27 1 27.527 7.711 7.245
638 27 1 27.527 7.711 7.849
639 27 1 27.527 7.711 8.453
640 27 1 27.527 7.711 9.057
641 27 1 27.527 7.711 9.660
642 27 1 27.527 7.711 10.264
643 27 1 27.527 7.711 10.868
644 27 1 27.527 7.711 11.472
645 27 1 27.527 7.711 12.075
646 27 1 27.527 7.711 12.679
647 27 1 27.527 7.711 13.283
648 27 1 27.527 7.711 13.887
649 28 1 0.000 11.566 0.000
650 28 1 0.000 11.566 0.604
651 28 1 0.000 11.566 1.208
652 28 1 0.000 11.566 1.811
653 28 1 0.000 11.566 2.415
654 28 1 0.000 11.566 3.019
655 28 1 0.000 11.566 3.623
656 28 1 0.000 11.566 4.226
657 28 1 0.000 11.566 4.830
658 28 1 0.000 11.566 5.434
659 28 1 0.000 11.566 6.038
660 28 1 0.000 11.566 6.642
661 28 1 0.000 11.566 7.245
662 28 1 0.000 11.566 7.849
663 28 1 0.000 11.566 8.453
664 28 1 0.000 11.566 9.057
665 28 1 0.000 11.566 9.660
666 28 1 0.000 11.566 10.264
667 28 1 0.000 11.566 10.868
668 28 1 0.000 11.566 11.472
669 28 1 0.000 11.566 12.075
670 28 1 0.000 11.566 12.679
671 28 1 0.000 11.566 13.283
672 28 1 0.000 11.566 13.887
673 29 1 3.441 11.566 0.000
674 29 1 3.441 11.566 0.604
675 29 1 3.441 11.566 1.208
676 29 1 3.441 11.566 1.811
677 29 1 3.441 11.566 2.415
678 29 1 3.441 11.566 3.019
679 29 1 3.441 11.566 3.623
680 29 1 3.441 11.566 4.226
681 29 1 3.441 11.566 4.830
682 29 1 3.441 11.566 5.434
683 29 1 3.441 11.566 6.038
684 29 1 3.441 11.566 6.642
685 29 1 3.441 11.566 7.245
686 29 1 3.441 11.566 7.849
687 29 1 3.441 11.566 8.453
688 29 1 3.441 11.566 9.057
689 29 1 3.441 11.566 9.660
690 29 1 3.441 11.566 10.264
691 29 1 3.441 11.566 10.868
692 29 1 3.441 11.566 11.472
693 29 1 3.441 11.566 12.075
694 29 1 3.441 11.566 12.679
695 29 1 3.441 11.566 13.283
696 29 1 3.441 11.566 13.887
697 30 1 6.882 11.566 0.000
698 30 1 6.882 11.566 0.604
699 30 1 6.882 11.566 1.208
700 30 1 6.882 11.566 1.811
701 30 1 6.882 11.566 2.415
702 30 1 6.882 11.566 3.019
703 30 1 6.882 11.566 3.623
704 30 1 6.882 11.566 4.226
705 30 1 6.882 11.566 4.830
706 30 1 6.882 11.566 5.434
707 30 1 6.882 11.566 6.038
708 30 1 6.882 11.566 6.642
709 30 1 6.882 11.566 7.245
710 30 1 6.882 11.566 7.849
711 30 1 6.882 11.566 8.453
712 30 1 6.882 11.566 9.057
713 30 1 6.882 11.566 9.660
714 30 1 6.882 11.566 10.264
715 30 1 6.882 11.566 10.868
716 30 1 6.882 11.566 11.472
717 30 1 6.882 11.566 12.075
718 30 1 6.882 11.566 12.679
719 30 1 6.882 11.566 13.283
720 30 1 6.882 11.566 13.887
721 31 1 10.323 11.566 0.000
722 31 1 10.323 11.566 0.604
723 31 1 10.323 11.566 1.208
724 31 1 10.323 11.566 1.811
725 31 1 10.323 11.566 2.415
726 31 1 10.323 11.566 3.019
727 31 1 10.323 11.566 3.623
728 31 1 10.323 11.566 4.226
729 31 1 10.323 11.566 4.830
730 31 1 10.323 11.566 5.434
731 31 1 10.323 11.566 6.038
732 31 1 10.323 11.566 6.642
733 31 1 10.323 11.566 7.245
734 31 1 10.323 11.566 7.849
735 31 1 10.323 11.566 8.453
736 31 1 10.323 11.566 9.057
737 31 1 10.323 11.566 9.660
738 31 1 10.323 11.566 10.264
739 31 1 10.323 11.566 10.868
740 31 1 10.323 11.566 11.472
741 31 1 10.323 11.566 12.075
742 31 1 10.323 11.566 12.679
743 31 1 10.323 11.566 13.283
744 31 1 10.323 11.566 13.887
745 32 1 13.763 11.566 0.000
746 32 1 13.763 11.566 0.604
747 32 1 13.763 11.566 1.208
748 32 1 13.763 11.566 1.811
749 32 1 13.763 11.566 2.415
750 32 1 13.763 11.566 3.019
751 32 1 13.763 11.566 3.623
752 32 1 13.763 11.566 4.226
753 32 1 13.763 11.566 4.830
754 32 1 13.763 11.566 5.434
755 32 1 13.763 11.566 6.038
756 32 1 13.763 11.566 6.642
757 32 1 13.763 11.566 7.245
758 32 1 13.763 11.566 7.849
759 32 1 13.763 11.566 8.453
760 32 1 13.763 11.566 9.057
761 32 1 13.763 11.566 9.660
762 32 1 13.763 11.566 10.264
763 32 1 13.763 11.566 10.868
764 32 1 13.763 11.566 11.472
765 32 1 13.763 11.566 12.075
766 32 1 13.763 11.566 12.679
767 32 1 13.763 11.566 13.283
768 32 1 13.763 11.566 13.887
769 33 1 17.204 11.566 0.000
770 33 1 17.204 11.566 0.604
771 33 1 17.204 11.566 1.208
772 33 1 17.204 11.566 1.811
773 33 1 17.204 11.566 2.415
774 33 1 17.204 11.566 3.019
775 33 1 17.204 11.566 3.623
776 33 1 17.204 11.566 4.226
777 33 1 17.204 11.566 4.830
778 33 1 17.204 11.566 5.434
779 33 1 17.204 11.566 6.038
780 33 1 17.204 11.566 6.642
781 33 1 17.204 11.566 7.245
782 33 1 17.204 11.566 7.849
783 33 1 17.204 11.566 8.453
784 33 1 17.204 11.566 9.057
785 33 1 17.204 11.566 9.660
786 33 1 17.204 11.566 10.264
787 33 1 17.204 11.566 10.868
788 33 1 17.204 11.566 11.472
789 33 1 17.204 11.566 12.075
790 33 1 17.204 11.566 12.679
791 33 1 17.204 11.566 13.283
792 33 1 17.204 11.566 13.887
793 34 1 20.645 11.566 0.000
794 34 1 20.645 11.566 0.604
795 34 1 20.645 11.566 1.208
796 34 1 20.645 11.566 1.811
797 34 1 20.645 11.566 2.415
798 34 1 20.645 11.566 3.019
799 34 1 20.645 11.566 3.623
800 34 1 20.645 11.566 4.226
801 34 1 20.645 11.566 4.830
802 34 1 20.645 11.566 5.434
803 34 1 20.645 11.566 6.038
804 34 1 20.645 11.566 6.642
805 34 1 20.645 11.566 7.245
806 34 1 20.645 11.566 7.849
807 34 1 20.645 11.566 8.453
808 34 1 20.645 11.566 9.057
809 34 1 20.645 11.566 9.660
810 34 1 20.645 11.566 10.264
811 34 1 20.645 11.566 10.868
812 34 1 20.645 11.566 11.472
813 34 1 20.645 11.566 12.075
814 34 1 20.645 11.566 12.679
815 34 1 20.645 11.566 13.283
816 34 1 20.645 11.566 13.887
817 35 1 24.086 11.566 0.000
818 35 1 24.086 11.566 0.604
819 35 1 24.086 11.566 1.208
820 35 1 24.086 11.566 1.811
821 35 1 24.086 11.566 2.415
822 35 1 24.086 11.566 3.019
823 35 1 24.086 11.566 3.623
824 35 1 24.086 11.566 4.226
825 35 1 24.086 11.566 4.830
826 35 1 24.086 11.566 5.434
827 35 1 24.086 11.566 6.038
828 35 1 24.086 11.566 6.642
829 35 1 24.086 11.566 7.245
830 35 1 24.086 11.566 7.849
831 35 1 24.086 11.566 8.453
832 35 1 24.086 11.566 9.057
833 35 1 24.086 11.566 9.660
834 35 1 24.086 11.566 10.264
835 35 1 24.086 11.566 10.868
836 35 1 24.086 11.566 11.472
837 35 1 24.086 11.566 12.075
838 35 1 24.086 11.566 12.679
839 35 1 24.086 11.566 13.283
840 35 1 24.086 11.566 13.887
841 36 1 27.527 11.566 0.000
842 36 1 27.527 11.566 0.604
843 36 1 27.527 11.566 1.208
844 36 1 27.527 11.566 1.811
845 36 1 27.527 11.566 2.415
846 36 1 27.527 11.566 3.019
847 36 1 27.527 11.566 3.623
848 36 1 27.527 11.566 4.226
849 36 1 27.527 11.566 4.830
850 36 1 27.527 11.566 5.434
851 36 1 27.527 11.566 6.038
852 36 1 27.527 11.566 6.642
853 36 1 27.527 11.566 7.245
854 36 1 27.527 11.566 7.849
855 36 1 27.527 11.566 8.453
856 36 1 27.527 11.566 9.057
857 36 1 27.527 11.566 9.660
858 36 1 27.527 11.566 10.264
859 36 1 27.527 11.566 10.868
860 36 1 27.527 11.566 11.472
861 36 1 27.527 11.566 12.075
862 36 1 27.527 11.566 12.679
863 36 1 27.527 11.566 13.283
864 36 1 27.527 11.566 13.887
865 37 1 0.000 15.422 0.000
866 37 1 0.000 15.422 0.604
867 37 1 0.000 15.422 1.208
868 37 1 0.000 15.422 1.811
869 37 1 0.000 15.422 2.415
870 37 1 0.000 15.422 3.019
871 37 1 0.000 15.422 3.623
872 37 1 0.000 15.422 4.226
873 37 1 0.000 15.422 4.830
874 37 1 0.000 15.422 5.434
875 37 1 0.000 15.422 6.038
876 37 1 0.000 15.422 6.642
877 37 1 0.000 15.422 7.245
878 37 1 0.000 15.422 7.849
879 37 1 0.000 15.422 8.453
880 37 1 0.000 15.422 9.057
881 37 1 0.000 15.422 9.660
882 37 1 0.000 15.422 10.264
883 37 1 0.000 15.422 10.868
884 37 1 0.000 15.422 11.472
885 37 1 0.000 15.422 12.075
886 37 1 0.000 15.422 12.679
887 37 1 0.000 15.422 13.283
888 37 1 0.000 15.422 13.887
889 38 1 3.441 15.422 0.000
890 38 1 3.441 15.422 0.604
891 38 1 3.441 15.422 1.208
892 38 1 3.441 15.422 1.811
893 38 1 3.441 15.422 2.415
894 38 1 3.441 15.422 3.019
895 38 1 3.441 15.422 3.623
896 38 1 3.441 15.422 4.226
897 38 1 3.441 15.422 4.830
898 38 1 3.441 15.422 5.434
899 38 1 3.441 15.422 6.038
900 38 1 3.441 15.422 6.642
901 38 1 3.441 15.422 7.245
902 38 1 3.441 15.422 7.849
903 38 1 3.441 15.422 8.453
904 38 1 3.441 15.422 9.057
905 38 1 3.441 15.422 9.660
906 38 1 3.441 15.422 10.264
907 38 1 3.441 15.422 10.868
908 38 1 3.441 15.422 11.472
909 38 1 3.441 15.422 12.075
910 38 1 3.441 15.422 12.679
911 38 1 3.441 15.422 13.283
912 38 1 3.441 15.422 13.887
913 39 1 6.882 15.422 0.000
914 39 1 6.882 15.422 0.604
915 39 1 6.882 15.422 1.208
916 39 1 6.882 15.422 1.811
917 39 1 6.882 15.422 2.415
918 39 1 6.882 15.422 3.019
919 39 1 6.882 15.422 3.623
920 39 1 6.882 15.422 4.226
921 39 1 6.882 15.422 4.830
922 39 1 6.882 15.422 5.434
923 39 1 6.882 15.422 6.038
924 39 1 6.882 15.422 6.642
925 39 1 6.882 15.422 7.245
926 39 1 6.882 15.422 7.849
927 39 1 6.882 15.422 8.453
928 39 1 6.882 15.422 9.057
929 39 1 6.882 15.422 9.660
930 39 1 6.882 15.422 10.264
931 39 1 6.882 15.422 10.868
932 39 1 6.882 15.422 11.472
933 39 1 6.882 15.422 12.075
934 39 1 6.882 15.422 12.679
935 39 1 6.882 15.422 13.283
936 39 1 6.882 15.422 13.887
937 40 1 10.323 15.422 0.000
938 40 1 10.323 15.422 0.604
939 40 1 10.323 15.422 1.208
940 40 1 10.323 15.422 1.811
941 40 1 10.323 15.422 2.415
942 40 1 10.323 15.422 3.019
943 40 1 10.323 15.422 3.623
944 40 1 10.323 15.422 4.226
945 40 1 10.323 15.422 4.830
946 40 1 10.323 15.422 5.434
947 40 1 10.323 15.422 6.038
948 40 1 10.323 15.422 6.642
949 40 1 10.323 15.422 7.245
950 40 1 10.323 15.422 7.849
951 40 1 10.323 15.422 8.453
952 40 1 10.323 15.422 9.057
953 40 1 10.323 15.422 9.660
954 40 1 10.323 15.422 10.264
955 40 1 10.323 15.422 10.868
956 40 1 10.323 15.422 11.472
957 40 1 10.323 15.422 12.075
958 40 1 10.323 15.422 12.679
959 40 1 10.323 15.422 13.283
960 40 1 10.323 15.422 13.887
961 41 1 13.763 15.422 0.000
962 41 1 13.763 15.422 0.604
963 41 1 13.763 15.422 1.208
964 41 1 13.763 15.422 1.811
965 41 1 13.763 15.422 2.415
966 41 1 13.763 15.422 3.019
967 41 1 13.763 15.422 3.623
968 41 1 13.763 15.422 4.226
969 41 1 13.763 15.422 4.830
970 41 1 13.763 15.422 5.434
971 41 1 13.763 15.422 6.038
972 41 1 13.763 15.422 6.642
973 41 1 13.763 15.422 7.245
974 41 1 13.763 15.422 7.849
975 41 1 13.763 15.422 8.453
976 41 1 13.763 15.422 9.057
977 41 1 13.763 15.422 9.660
978 41 1 13.763 15.422 10.264
979 41 1 13.763 15.422 10.868
980 41 1 13.763 15.422 11.472
981 41 1 13.763 15.422 12.075
982 41 1 13.763 15.422 12.679
983 41 1 13.763 15.422 13.283
984 41 1 13.763 15.422 13.887
985 42 1 17.204 15.422 0.000
986 42 1 17.204 15.422 0.604
987 42 1 17.204 15.422 1.208
988 42 1 17.204 15.422 1.811
989 42 1 17.204 15.422 2.415
990 42 1 17.204 15.422 3.019
991 42 1 17.204 15.422 3.623
992 42 1 17.204 15.422 4.226
993 42 1 17.204 15.422 4.830
994 42 1 17.204 15.422 5.434
995 42 1 17.204 15.422 6.038
996 42 1 17.204 15.422 6.642
997 42 1 17.204 15.422 7.245
998 42 1 17.204 15.422 7.849
999 42 1 17.204 15.422 8.453
1000 42 1 17.204 15.422 9.057
1001 42 1 17.204 15.422 9.660
1002 42 1 17.204 15.422 10.264
1003 42 1 17.204 15.422 10.868
1004 42 1 17.204 15.422 11.472
1005 42 1 17.204 15.422 12.075
1006 42 1 17.204 15.422 12.679
1007 42 1 17.204 15.422 13.283
1008 42 1 17.204 15.422 13.887
1009 43 1 20.645 15.422 0.000
1010 43 1 20.645 15.422 0.604
1011 43 1 20.645 15.422 1.208
1012 43 1 20.645 15.422 1.811
1013 43 1 20.645 15.422 2.415
1014 43 1 20.645 15.422 3.019
1015 43 1 20.645 15.422 3.623
1016 43 1 20.645 15.422 4.226
1017 43 1 20.645 15.422 4.830
1018 43 1 20.645 15.422 5.434
1019 43 1 20.645 15.422 6.038
1020 43 1 20.645 15.422 6.642
1021 43 1 20.645 15.422 7.245
1022 43 1 20.645 15.422 7.849
1023 43 1 20.645 15.422 8.453
1024 43 1 20.645 15.422 9.057
1025 43 1 20.645 15.422 9.660
1026 43 1 20.645 15.422 10.264
1027 43 1 20.645 15.422 10.868
1028 43 1 20.645 15.422 11.472
1029 43 1 20.645 15.422 12.075
1030 43 1 20.645 15.422 12.679
1031 43 1 20.645 15.422 13.283
1032 43 1 20.645 15.422 13.887
1033 44 1 24.086 15.422 0.000
1034 44 1 24.086 15.422 0.604
1035 44 1 24.086 15.422 1.208
1036 44 1 24.086 15.422 1.811
1037 44 1 24.086 15.422 2.415
1038 44 1 24.086 15.422 3.019
1039 44 1 24.086 15.422 3.623
1040 44 1 24.086 15.422 4.226
1041 44 1 24.086 15.422 4.830
1042 44 1 24.086 15.422 5.434
1043 44 1 24.086 15.422 6.038
1044 44 1 24.086 15.422 6.642
1045 44 1 24.086 15.422 7.245
1046 44 1 24.086 15.422 7.849
1047 44 1 24.086 15.422 8.453
1048 44 1 24.086 15.422 9.057
1049 44 1 24.086 15.422 9.660
1050 44 1 24.086 15.422 10.264
1051 44 1 24.086 15.422 10.868
1052 44 1 24.086 15.422 11.472
1053 44 1 24.086 15.422 12.075
1054 44 1 24.086 15.422 12.679
1055 44 1 24.086 15.422 13.283
1056 44 1 24.086 15.422 13.887
1057 45 1 27.527 15.422 0.000
1058 45 1 27.527 15.422 0.604
1059 45 1 27.527 15.422 1.208
1060 45 1 27.527 15.422 1.811