LAMMPS data file for polymer chains

3264 atoms
2992 bonds

2 atom types
1 bond types

0.0 32.0 xlo xhi
0.0 32.0 ylo yhi
0.0 32.0 zlo zhi

Masses

1 1.0  # Type A
2 1.0  # Type B

Atoms # molecular

1 1 1 0.000 0.000 0.000
2 1 1 0.000 0.000 1.103
3 1 1 0.000 0.000 2.207
4 1 1 0.000 0.000 3.310
5 1 1 0.000 0.000 4.414
6 1 1 0.000 0.000 5.517
7 1 1 0.000 0.000 6.621
8 1 1 0.000 0.000 7.724
9 1 1 0.000 0.000 8.828
10 1 1 0.000 0.000 9.931
11 1 1 0.000 0.000 11.034
12 1 1 0.000 0.000 12.138
13 2 1 2.602 0.000 0.000
14 2 1 2.602 0.000 1.103
15 2 1 2.602 0.000 2.207
16 2 1 2.602 0.000 3.310
17 2 1 2.602 0.000 4.414
18 2 1 2.602 0.000 5.517
19 2 1 2.602 0.000 6.621
20 2 1 2.602 0.000 7.724
21 2 1 2.602 0.000 8.828
22 2 1 2.602 0.000 9.931
23 2 1 2.602 0.000 11.034
24 2 1 2.602 0.000 12.138
25 3 1 5.203 0.000 0.000
26 3 1 5.203 0.000 1.103
27 3 1 5.203 0.000 2.207
28 3 1 5.203 0.000 3.310
29 3 1 5.203 0.000 4.414
30 3 1 5.203 0.000 5.517
31 3 1 5.203 0.000 6.621
32 3 1 5.203 0.000 7.724
33 3 1 5.203 0.000 8.828
34 3 1 5.203 0.000 9.931
35 3 1 5.203 0.000 11.034
36 3 1 5.203 0.000 12.138
37 4 1 7.805 0.000 0.000
38 4 1 7.805 0.000 1.103
39 4 1 7.805 0.000 2.207
40 4 1 7.805 0.000 3.310
41 4 1 7.805 0.000 4.414
42 4 1 7.805 0.000 5.517
43 4 1 7.805 0.000 6.621
44 4 1 7.805 0.000 7.724
45 4 1 7.805 0.000 8.828
46 4 1 7.805 0.000 9.931
47 4 1 7.805 0.000 11.034
48 4 1 7.805 0.000 12.138
49 5 1 10.407 0.000 0.000
50 5 1 10.407 0.000 1.103
51 5 1 10.407 0.000 2.207
52 5 1 10.407 0.000 3.310
53 5 1 10.407 0.000 4.414
54 5 1 10.407 0.000 5.517
55 5 1 10.407 0.000 6.621
56 5 1 10.407 0.000 7.724
57 5 1 10.407 0.000 8.828
58 5 1 10.407 0.000 9.931
59 5 1 10.407 0.000 11.034
60 5 1 10.407 0.000 12.138
61 6 1 13.008 0.000 0.000
62 6 1 13.008 0.000 1.103
63 6 1 13.008 0.000 2.207
64 6 1 13.008 0.000 3.310
65 6 1 13.008 0.000 4.414
66 6 1 13.008 0.000 5.517
67 6 1 13.008 0.000 6.621
68 6 1 13.008 0.000 7.724
69 6 1 13.008 0.000 8.828
70 6 1 13.008 0.000 9.931
71 6 1 13.008 0.000 11.034
72 6 1 13.008 0.000 12.138
73 7 1 15.610 0.000 0.000
74 7 1 15.610 0.000 1.103
75 7 1 15.610 0.000 2.207
76 7 1 15.610 0.000 3.310
77 7 1 15.610 0.000 4.414
78 7 1 15.610 0.000 5.517
79 7 1 15.610 0.000 6.621
80 7 1 15.610 0.000 7.724
81 7 1 15.610 0.000 8.828
82 7 1 15.610 0.000 9.931
83 7 1 15.610 0.000 11.034
84 7 1 15.610 0.000 12.138
85 8 1 18.211 0.000 0.000
86 8 1 18.211 0.000 1.103
87 8 1 18.211 0.000 2.207
88 8 1 18.211 0.000 3.310
89 8 1 18.211 0.000 4.414
90 8 1 18.211 0.000 5.517
91 8 1 18.211 0.000 6.621
92 8 1 18.211 0.000 7.724
93 8 1 18.211 0.000 8.828
94 8 1 18.211 0.000 9.931
95 8 1 18.211 0.000 11.034
96 8 1 18.211 0.000 12.138
97 9 1 20.813 0.000 0.000
98 9 1 20.813 0.000 1.103
99 9 1 20.813 0.000 2.207
100 9 1 20.813 0.000 3.310
101 9 1 20.813 0.000 4.414
102 9 1 20.813 0.000 5.517
103 9 1 20.813 0.000 6.621
104 9 1 20.813 0.000 7.724
105 9 1 20.813 0.000 8.828
106 9 1 20.813 0.000 9.931
107 9 1 20.813 0.000 11.034
108 9 1 20.813 0.000 12.138
109 10 1 23.415 0.000 0.000
110 10 1 23.415 0.000 1.103
111 10 1 23.415 0.000 2.207
112 10 1 23.415 0.000 3.310
113 10 1 23.415 0.000 4.414
114 10 1 23.415 0.000 5.517
115 10 1 23.415 0.000 6.621
116 10 1 23.415 0.000 7.724
117 10 1 23.415 0.000 8.828
118 10 1 23.415 0.000 9.931
119 10 1 23.415 0.000 11.034
120 10 1 23.415 0.000 12.138
121 11 1 26.016 0.000 0.000
122 11 1 26.016 0.000 1.103
123 11 1 26.016 0.000 2.207
124 11 1 26.016 0.000 3.310
125 11 1 26.016 0.000 4.414
126 11 1 26.016 0.000 5.517
127 11 1 26.016 0.000 6.621
128 11 1 26.016 0.000 7.724
129 11 1 26.016 0.000 8.828
130 11 1 26.016 0.000 9.931
131 11 1 26.016 0.000 11.034
132 11 1 26.016 0.000 12.138
133 12 1 28.618 0.000 0.000
134 12 1 28.618 0.000 1.103
135 12 1 28.618 0.000 2.207
136 12 1 28.618 0.000 3.310
137 12 1 28.618 0.000 4.414
138 12 1 28.618 0.000 5.517
139 12 1 28.618 0.000 6.621
140 12 1 28.618 0.000 7.724
141 12 1 28.618 0.000 8.828
142 12 1 28.618 0.000 9.931
143 12 1 28.618 0.000 11.034
144 12 1 28.618 0.000 12.138
145 13 1 0.000 2.602 0.000
146 13 1 0.000 2.602 1.103
147 13 1 0.000 2.602 2.207
148 13 1 0.000 2.602 3.310
149 13 1 0.000 2.602 4.414
150 13 1 0.000 2.602 5.517
151 13 1 0.000 2.602 6.621
152 13 1 0.000 2.602 7.724
153 13 1 0.000 2.602 8.828
154 13 1 0.000 2.602 9.931
155 13 1 0.000 2.602 11.034
156 13 1 0.000 2.602 12.138
157 14 1 2.602 2.602 0.000
158 14 1 2.602 2.602 1.103
159 14 1 2.602 2.602 2.207
160 14 1 2.602 2.602 3.310
161 14 1 2.602 2.602 4.414
162 14 1 2.602 2.602 5.517
163 14 1 2.602 2.602 6.621
164 14 1 2.602 2.602 7.724
165 14 1 2.602 2.602 8.828
166 14 1 2.602 2.602 9.931
167 14 1 2.602 2.602 11.034
168 14 1 2.602 2.602 12.138
169 15 1 5.203 2.602 0.000
170 15 1 5.203 2.602 1.103
171 15 1 5.203 2.602 2.207
172 15 1 5.203 2.602 3.310
173 15 1 5.203 2.602 4.414
174 15 1 5.203 2.602 5.517
175 15 1 5.203 2.602 6.621
176 15 1 5.203 2.602 7.724
177 15 1 5.203 2.602 8.828
178 15 1 5.203 2.602 9.931
179 15 1 5.203 2.602 11.034
180 15 1 5.203 2.602 12.138
181 16 1 7.805 2.602 0.000
182 16 1 7.805 2.602 1.103
183 16 1 7.805 2.602 2.207
184 16 1 7.805 2.602 3.310
185 16 1 7.805 2.602 4.414
186 16 1 7.805 2.602 5.517
187 16 1 7.805 2.602 6.621
188 16 1 7.805 2.602 7.724
189 16 1 7.805 2.602 8.828
190 16 1 7.805 2.602 9.931
191 16 1 7.805 2.602 11.034
192 16 1 7.805 2.602 12.138
193 17 1 10.407 2.602 0.000
194 17 1 10.407 2.602 1.103
195 17 1 10.407 2.602 2.207
196 17 1 10.407 2.602 3.310
197 17 1 10.407 2.602 4.414
198 17 1 10.407 2.602 5.517
199 17 1 10.407 2.602 6.621
200 17 1 10.407 2.602 7.724
201 17 1 10.407 2.602 8.828
202 17 1 10.407 2.602 9.931
203 17 1 10.407 2.602 11.034
204 17 1 10.407 2.602 12.138
205 18 1 13.008 2.602 0.000
206 18 1 13.008 2.602 1.103
207 18 1 13.008 2.602 2.207
208 18 1 13.008 2.602 3.310
209 18 1 13.008 2.602 4.414
210 18 1 13.008 2.602 5.517
211 18 1 13.008 2.602 6.621
212 18 1 13.008 2.602 7.724
213 18 1 13.008 2.602 8.828
214 18 1 13.008 2.602 9.931
215 18 1 13.008 2.602 11.034
216 18 1 13.008 2.602 12.138
217 19 1 15.610 2.602 0.000
218 19 1 15.610 2.602 1.103
219 19 1 15.610 2.602 2.207
220 19 1 15.610 2.602 3.310
221 19 1 15.610 2.602 4.414
222 19 1 15.610 2.602 5.517
223 19 1 15.610 2.602 6.621
224 19 1 15.610 2.602 7.724
225 19 1 15.610 2.602 8.828
226 19 1 15.610 2.602 9.931
227 19 1 15.610 2.602 11.034
228 19 1 15.610 2.602 12.138
229 20 1 18.211 2.602 0.000
230 20 1 18.211 2.602 1.103
231 20 1 18.211 2.602 2.207
232 20 1 18.211 2.602 3.310
233 20 1 18.211 2.602 4.414
234 20 1 18.211 2.602 5.517
235 20 1 18.211 2.602 6.621
236 20 1 18.211 2.602 7.724
237 20 1 18.211 2.602 8.828
238 20 1 18.211 2.602 9.931
239 20 1 18.211 2.602 11.034
240 20 1 18.211 2.602 12.138
241 21 1 20.813 2.602 0.000
242 21 1 20.813 2.602 1.103
243 21 1 20.813 2.602 2.207
244 21 1 20.813 2.602 3.310
245 21 1 20.813 2.602 4.414
246 21 1 20.813 2.602 5.517
247 21 1 20.813 2.602 6.621
248 21 1 20.813 2.602 7.724
249 21 1 20.813 2.602 8.828
250 21 1 20.813 2.602 9.931
251 21 1 20.813 2.602 11.034
252 21 1 20.813 2.602 12.138
253 22 1 23.415 2.602 0.000
254 22 1 23.415 2.602 1.103
255 22 1 23.415 2.602 2.207
256 22 1 23.415 2.602 3.310
257 22 1 23.415 2.602 4.414
258 22 1 23.415 2.602 5.517
259 22 1 23.415 2.602 6.621
260 22 1 23.415 2.602 7.724
261 22 1 23.415 2.602 8.828
262 22 1 23.415 2.602 9.931
263 22 1 23.415 2.602 11.034
264 22 1 23.415 2.602 12.138
265 23 1 26.016 2.602 0.000
266 23 1 26.016 2.602 1.103
267 23 1 26.016 2.602 2.207
268 23 1 26.016 2.602 3.310
269 23 1 26.016 2.602 4.414
270 23 1 26.016 2.602 5.517
271 23 1 26.016 2.602 6.621
272 23 1 26.016 2.602 7.724
273 23 1 26.016 2.602 8.828
274 23 1 26.016 2.602 9.931
275 23 1 26.016 2.602 11.034
276 23 1 26.016 2.602 12.138
277 24 1 28.618 2.602 0.000
278 24 1 28.618 2.602 1.103
279 24 1 28.618 2.602 2.207
280 24 1 28.618 2.602 3.310
281 24 1 28.618 2.602 4.414
282 24 1 28.618 2.602 5.517
283 24 1 28.618 2.602 6.621
284 24 1 28.618 2.602 7.724
285 24 1 28.618 2.602 8.828
286 24 1 28.618 2.602 9.931
287 24 1 28.618 2.602 11.034
288 24 1 28.618 2.602 12.138
289 25 1 0.000 5.203 0.000
290 25 1 0.000 5.203 1.103
291 25 1 0.000 5.203 2.207
292 25 1 0.000 5.203 3.310
293 25 1 0.000 5.203 4.414
294 25 1 0.000 5.203 5.517
295 25 1 0.000 5.203 6.621
296 25 1 0.000 5.203 7.724
297 25 1 0.000 5.203 8.828
298 25 1 0.000 5.203 9.931
299 25 1 0.000 5.203 11.034
300 25 1 0.000 5.203 12.138
301 26 1 2.602 5.203 0.000
302 26 1 2.602 5.203 1.103
303 26 1 2.602 5.203 2.207
304 26 1 2.602 5.203 3.310
305 26 1 2.602 5.203 4.414
306 26 1 2.602 5.203 5.517
307 26 1 2.602 5.203 6.621
308 26 1 2.602 5.203 7.724
309 26 1 2.602 5.203 8.828
310 26 1 2.602 5.203 9.931
311 26 1 2.602 5.203 11.034
312 26 1 2.602 5.203 12.138
313 27 1 5.203 5.203 0.000
314 27 1 5.203 5.203 1.103
315 27 1 5.203 5.203 2.207
316 27 1 5.203 5.203 3.310
317 27 1 5.203 5.203 4.414
318 27 1 5.203 5.203 5.517
319 27 1 5.203 5.203 6.621
320 27 1 5.203 5.203 7.724
321 27 1 5.203 5.203 8.828
322 27 1 5.203 5.203 9.931
323 27 1 5.203 5.203 11.034
324 27 1 5.203 5.203 12.138
325 28 1 7.805 5.203 0.000
326 28 1 7.805 5.203 1.103
327 28 1 7.805 5.203 2.207
328 28 1 7.805 5.203 3.310
329 28 1 7.805 5.203 4.414
330 28 1 7.805 5.203 5.517
331 28 1 7.805 5.203 6.621
332 28 1 7.805 5.203 7.724
333 28 1 7.805 5.203 8.828
334 28 1 7.805 5.203 9.931
335 28 1 7.805 5.203 11.034
336 28 1 7.805 5.203 12.138
337 29 1 10.407 5.203 0.000
338 29 1 10.407 5.203 1.103
339 29 1 10.407 5.203 2.207
340 29 1 10.407 5.203 3.310
341 29 1 10.407 5.203 4.414
342 29 1 10.407 5.203 5.517
343 29 1 10.407 5.203 6.621
344 29 1 10.407 5.203 7.724
345 29 1 10.407 5.203 8.828
346 29 1 10.407 5.203 9.931
347 29 1 10.407 5.203 11.034
348 29 1 10.407 5.203 12.138
349 30 1 13.008 5.203 0.000
350 30 1 13.008 5.203 1.103
351 30 1 13.008 5.203 2.207
352 30 1 13.008 5.203 3.310
353 30 1 13.008 5.203 4.414
354 30 1 13.008 5.203 5.517
355 30 1 13.008 5.203 6.621
356 30 1 13.008 5.203 7.724
357 30 1 13.008 5.203 8.828
358 30 1 13.008 5.203 9.931
359 30 1 13.008 5.203 11.034
360 30 1 13.008 5.203 12.138
361 31 1 15.610 5.203 0.000
362 31 1 15.610 5.203 1.103
363 31 1 15.610 5.203 2.207
364 31 1 15.610 5.203 3.310
365 31 1 15.610 5.203 4.414
366 31 1 15.610 5.203 5.517
367 31 1 15.610 5.203 6.621
368 31 1 15.610 5.203 7.724
369 31 1 15.610 5.203 8.828
370 31 1 15.610 5.203 9.931
371 31 1 15.610 5.203 11.034
372 31 1 15.610 5.203 12.138
373 32 1 18.211 5.203 0.000
374 32 1 18.211 5.203 1.103
375 32 1 18.211 5.203 2.207
376 32 1 18.211 5.203 3.310
377 32 1 18.211 5.203 4.414
378 32 1 18.211 5.203 5.517
379 32 1 18.211 5.203 6.621
380 32 1 18.211 5.203 7.724
381 32 1 18.211 5.203 8.828
382 32 1 18.211 5.203 9.931
383 32 1 18.211 5.203 11.034
384 32 1 18.211 5.203 12.138
385 33 1 20.813 5.203 0.000
386 33 1 20.813 5.203 1.103
387 33 1 20.813 5.203 2.207
388 33 1 20.813 5.203 3.310
389 33 1 20.813 5.203 4.414
390 33 1 20.813 5.203 5.517
391 33 1 20.813 5.203 6.621
392 33 1 20.813 5.203 7.724
393 33 1 20.813 5.203 8.828
394 33 1 20.813 5.203 9.931
395 33 1 20.813 5.203 11.034
396 33 1 20.813 5.203 12.138
397 34 1 23.415 5.203 0.000
398 34 1 23.415 5.203 1.103
399 34 1 23.415 5.203 2.207
400 34 1 23.415 5.203 3.310
401 34 1 23.415 5.203 4.414
402 34 1 23.415 5.203 5.517
403 34 1 23.415 5.203 6.621
404 34 1 23.415 5.203 7.724
405 34 1 23.415 5.203 8.828
406 34 1 23.415 5.203 9.931
407 34 1 23.415 5.203 11.034
408 34 1 23.415 5.203 12.138
409 35 1 26.016 5.203 0.000
410 35 1 26.016 5.203 1.103
411 35 1 26.016 5.203 2.207
412 35 1 26.016 5.203 3.310
413 35 1 26.016 5.203 4.414
414 35 1 26.016 5.203 5.517
415 35 1 26.016 5.203 6.621
416 35 1 26.016 5.203 7.724
417 35 1 26.016 5.203 8.828
418 35 1 26.016 5.203 9.931
419 35 1 26.016 5.203 11.034
420 35 1 26.016 5.203 12.138
421 36 1 28.618 5.203 0.000
422 36 1 28.618 5.203 1.103
423 36 1 28.618 5.203 2.207
424 36 1 28.618 5.203 3.310
425 36 1 28.618 5.203 4.414
426 36 1 28.618 5.203 5.517
427 36 1 28.618 5.203 6.621
428 36 1 28.618 5.203 7.724
429 36 1 28.618 5.203 8.828
430 36 1 28.618 5.203 9.931
431 36 1 28.618 5.203 11.034
432 36 1 28.618 5.203 12.138
433 37 1 0.000 7.805 0.000
434 37 1 0.000 7.805 1.103
435 37 1 0.000 7.805 2.207
436 37 1 0.000 7.805 3.310
437 37 1 0.000 7.805 4.414
438 37 1 0.000 7.805 5.517
439 37 1 0.000 7.805 6.621
440 37 1 0.000 7.805 7.724
441 37 1 0.000 7.805 8.828
442 37 1 0.000 7.805 9.931
443 37 1 0.000 7.805 11.034
444 37 1 0.000 7.805 12.138
445 38 1 2.602 7.805 0.000
446 38 1 2.602 7.805 1.103
447 38 1 2.602 7.805 2.207
448 38 1 2.602 7.805 3.310
449 38 1 2.602 7.805 4.414
450 38 1 2.602 7.805 5.517
451 38 1 2.602 7.805 6.621
452 38 1 2.602 7.805 7.724
453 38 1 2.602 7.805 8.828
454 38 1 2.602 7.805 9.931
455 38 1 2.602 7.805 11.034
456 38 1 2.602 7.805 12.138
457 39 1 5.203 7.805 0.000
458 39 1 5.203 7.805 1.103
459 39 1 5.203 7.805 2.207
460 39 1 5.203 7.805 3.310
461 39 1 5.203 7.805 4.414
462 39 1 5.203 7.805 5.517
463 39 1 5.203 7.805 6.621
464 39 1 5.203 7.805 7.724
465 39 1 5.203 7.805 8.828
466 39 1 5.203 7.805 9.931
467 39 1 5.203 7.805 11.034
468 39 1 5.203 7.805 12.138
469 40 1 7.805 7.805 0.000
470 40 1 7.805 7.805 1.103
471 40 1 7.805 7.805 2.207
472 40 1 7.805 7.805 3.310
473 40 1 7.805 7.805 4.414
474 40 1 7.805 7.805 5.517
475 40 1 7.805 7.805 6.621
476 40 1 7.805 7.805 7.724
477 40 1 7.805 7.805 8.828
478 40 1 7.805 7.805 9.931
479 40 1 7.805 7.805 11.034
480 40 1 7.805 7.805 12.138
481 41 1 10.407 7.805 0.000
482 41 1 10.407 7.805 1.103
483 41 1 10.407 7.805 2.207
484 41 1 10.407 7.805 3.310
485 41 1 10.407 7.805 4.414
486 41 1 10.407 7.805 5.517
487 41 1 10.407 7.805 6.621
488 41 1 10.407 7.805 7.724
489 41 1 10.407 7.805 8.828
490 41 1 10.407 7.805 9.931
491 41 1 10.407 7.805 11.034
492 41 1 10.407 7.805 12.138
493 42 1 13.008 7.805 0.000
494 42 1 13.008 7.805 1.103
495 42 1 13.008 7.805 2.207
496 42 1 13.008 7.805 3.310
497 42 1 13.008 7.805 4.414
498 42 1 13.008 7.805 5.517
499 42 1 13.008 7.805 6.621
500 42 1 13.008 7.805 7.724
501 42 1 13.008 7.805 8.828
502 42 1 13.008 7.805 9.931
503 42 1 13.008 7.805 11.034
504 42 1 13.008 7.805 12.138
505 43 1 15.610 7.805 0.000
506 43 1 15.610 7.805 1.103
507 43 1 15.610 7.805 2.207
508 43 1 15.610 7.805 3.310
509 43 1 15.610 7.805 4.414
510 43 1 15.610 7.805 5.517
511 43 1 15.610 7.805 6.621
512 43 1 15.610 7.805 7.724
513 43 1 15.610 7.805 8.828
514 43 1 15.610 7.805 9.931
515 43 1 15.610 7.805 11.034
516 43 1 15.610 7.805 12.138
517 44 1 18.211 7.805 0.000
518 44 1 18.211 7.805 1.103
519 44 1 18.211 7.805 2.207
520 44 1 18.211 7.805 3.310
521 44 1 18.211 7.805 4.414
522 44 1 18.211 7.805 5.517
523 44 1 18.211 7.805 6.621
524 44 1 18.211 7.805 7.724
525 44 1 18.211 7.805 8.828
526 44 1 18.211 7.805 9.931
527 44 1 18.211 7.805 11.034
528 44 1 18.211 7.805 12.138
529 45 1 20.813 7.805 0.000
530 45 1 20.813 7.805 1.103
531 45 1 20.813 7.805 2.207
532 45 1 20.813 7.805 3.310
533 45 1 20.813 7.805 4.414
534 45 1 20.813 7.805 5.517
535 45 1 20.813 7.805 6.621
536 45 1 20.813 7.805 7.724
537 45 1 20.813 7.805 8.828
538 45 1 20.813 7.805 9.931
539 45 1 20.813 7.805 11.034
540 45 1 20.813 7.805 12.138
541 46 1 23.415 7.805 0.000
542 46 1 23.415 7.805 1.103
543 46 1 23.415 7.805 2.207
544 46 1 23.415 7.805 3.310
545 46 1 23.415 7.805 4.414
546 46 1 23.415 7.805 5.517
547 46 1 23.415 7.805 6.621
548 46 1 23.415 7.805 7.724
549 46 1 23.415 7.805 8.828
550 46 1 23.415 7.805 9.931
551 46 1 23.415 7.805 11.034
552 46 1 23.415 7.805 12.138
553 47 1 26.016 7.805 0.000
554 47 1 26.016 7.805 1.103
555 47 1 26.016 7.805 2.207
556 47 1 26.016 7.805 3.310
557 47 1 26.016 7.805 4.414
558 47 1 26.016 7.805 5.517
559 47 1 26.016 7.805 6.621
560 47 1 26.016 7.805 7.724
561 47 1 26.016 7.805 8.828
562 47 1 26.016 7.805 9.931
563 47 1 26.016 7.805 11.034
564 47 1 26.016 7.805 12.138
565 48 1 28.618 7.805 0.000
566 48 1 28.618 7.805 1.103
567 48 1 28.618 7.805 2.207
568 48 1 28.618 7.805 3.310
569 48 1 28.618 7.805 4.414
570 48 1 28.618 7.805 5.517
571 48 1 28.618 7.805 6.621
572 48 1 28.618 7.805 7.724
573 48 1 28.618 7.805 8.828
574 48 1 28.618 7.805 9.931
575 48 1 28.618 7.805 11.034
576 48 1 28.618 7.805 12.138
577 49 1 0.000 10.407 0.000
578 49 1 0.000 10.407 1.103
579 49 1 0.000 10.407 2.207
580 49 1 0.000 10.407 3.310
581 49 1 0.000 10.407 4.414
582 49 1 0.000 10.407 5.517
583 49 1 0.000 10.407 6.621
584 49 1 0.000 10.407 7.724
585 49 1 0.000 10.407 8.828
586 49 1 0.000 10.407 9.931
587 49 1 0.000 10.407 11.034
588 49 1 0.000 10.407 12.138
589 50 1 2.602 10.407 0.000
590 50 1 2.602 10.407 1.103
591 50 1 2.602 10.407 2.207
592 50 1 2.602 10.407 3.310
593 50 1 2.602 10.407 4.414
594 50 1 2.602 10.407 5.517
595 50 1 2.602 10.407 6.621
596 50 1 2.602 10.407 7.724
597 50 1 2.602 10.407 8.828
598 50 1 2.602 10.407 9.931
599 50 1 2.602 10.407 11.034
600 50 1 2.602 10.407 12.138
601 51 1 5.203 10.407 0.000
602 51 1 5.203 10.407 1.103
603 51 1 5.203 10.407 2.207
604 51 1 5.203 10.407 3.310
605 51 1 5.203 10.407 4.414
606 51 1 5.203 10.407 5.517
607 51 1 5.203 10.407 6.621
608 51 1 5.203 10.407 7.724
609 51 1 5.203 10.407 8.828
610 51 1 5.203 10.407 9.931
611 51 1 5.203 10.407 11.034
612 51 1 5.203 10.407 12.138
613 52 1 7.805 10.407 0.000
614 52 1 7.805 10.407 1.103
615 52 1 7.805 10.407 2.207
616 52 1 7.805 10.407 3.310
617 52 1 7.805 10.407 4.414
618 52 1 7.805 10.407 5.517
619 52 1 7.805 10.407 6.621
620 52 1 7.805 10.407 7.724
621 52 1 7.805 10.407 8.828
622 52 1 7.805 10.407 9.931
623 52 1 7.805 10.407 11.034
624 52 1 7.805 10.407 12.138
625 53 1 10.407 10.407 0.000
626 53 1 10.407 10.407 1.103
627 53 1 10.407 10.407 2.207
628 53 1 10.407 10.407 3.310
629 53 1 10.407 10.407 4.414
630 53 1 10.407 10.407 5.517
631 53 1 10.407 10.407 6.621
632 53 1 10.407 10.407 7.724
633 53 1 10.407 10.407 8.828
634 53 1 10.407 10.407 9.931
635 53 1 10.407 10.407 11.034
636 53 1 10.407 10.407 12.138
637 54 1 13.008 10.407 0.000
638 54 1 13.008 10.407 1.103
639 54 1 13.008 10.407 2.207
640 54 1 13.008 10.407 3.310
641 54 1 13.008 10.407 4.414
642 54 1 13.008 10.407 5.517
643 54 1 13.008 10.407 6.621
644 54 1 13.008 10.407 7.724
645 54 1 13.008 10.407 8.828
646 54 1 13.008 10.407 9.931
647 54 1 13.008 10.407 11.034
648 54 1 13.008 10.407 12.138
649 55 1 15.610 10.407 0.000
650 55 1 15.610 10.407 1.103
651 55 1 15.610 10.407 2.207
652 55 1 15.610 10.407 3.310
653 55 1 15.610 10.407 4.414
654 55 1 15.610 10.407 5.517
655 55 1 15.610 10.407 6.621
656 55 1 15.610 10.407 7.724
657 55 1 15.610 10.407 8.828
658 55 1 15.610 10.407 9.931
659 55 1 15.610 10.407 11.034
660 55 1 15.610 10.407 12.138
661 56 1 18.211 10.407 0.000
662 56 1 18.211 10.407 1.103
663 56 1 18.211 10.407 2.207
664 56 1 18.211 10.407 3.310
665 56 1 18.211 10.407 4.414
666 56 1 18.211 10.407 5.517
667 56 1 18.211 10.407 6.621
668 56 1 18.211 10.407 7.724
669 56 1 18.211 10.407 8.828
670 56 1 18.211 10.407 9.931
671 56 1 18.211 10.407 11.034
672 56 1 18.211 10.407 12.138
673 57 1 20.813 10.407 0.000
674 57 1 20.813 10.407 1.103
675 57 1 20.813 10.407 2.207
676 57 1 20.813 10.407 3.310
677 57 1 20.813 10.407 4.414
678 57 1 20.813 10.407 5.517
679 57 1 20.813 10.407 6.621
680 57 1 20.813 10.407 7.724
681 57 1 20.813 10.407 8.828
682 57 1 20.813 10.407 9.931
683 57 1 20.813 10.407 11.034
684 57 1 20.813 10.407 12.138
685 58 1 23.415 10.407 0.000
686 58 1 23.415 10.407 1.103
687 58 1 23.415 10.407 2.207
688 58 1 23.415 10.407 3.310
689 58 1 23.415 10.407 4.414
690 58 1 23.415 10.407 5.517
691 58 1 23.415 10.407 6.621
692 58 1 23.415 10.407 7.724
693 58 1 23.415 10.407 8.828
694 58 1 23.415 10.407 9.931
695 58 1 23.415 10.407 11.034
696 58 1 23.415 10.407 12.138
697 59 1 26.016 10.407 0.000
698 59 1 26.016 10.407 1.103
699 59 1 26.016 10.407 2.207
700 59 1 26.016 10.407 3.310
701 59 1 26.016 10.407 4.414
702 59 1 26.016 10.407 5.517
703 59 1 26.016 10.407 6.621
704 59 1 26.016 10.407 7.724
705 59 1 26.016 10.407 8.828
706 59 1 26.016 10.407 9.931
707 59 1 26.016 10.407 11.034
708 59 1 26.016 10.407 12.138
709 60 1 28.618 10.407 0.000
710 60 1 28.618 10.407 1.103
711 60 1 28.618 10.407 2.207
712 60 1 28.618 10.407 3.310
713 60 1 28.618 10.407 4.414
714 60 1 28.618 10.407 5.517
715 60 1 28.618 10.407 6.621
716 60 1 28.618 10.407 7.724
717 60 1 28.618 10.407 8.828
718 60 1 28.618 10.407 9.931
719 60 1 28.618 10.407 11.034
720 60 1 28.618 10.407 12.138
721 61 1 0.000 13.008 0.000
722 61 1 0.000 13.008 1.103
723 61 1 0.000 13.008 2.207
724 61 1 0.000 13.008 3.310
725 61 1 0.000 13.008 4.414
726 61 1 0.000 13.008 5.517
727 61 1 0.000 13.008 6.621
728 61 1 0.000 13.008 7.724
729 61 1 0.000 13.008 8.828
730 61 1 0.000 13.008 9.931
731 61 1 0.000 13.008 11.034
732 61 1 0.000 13.008 12.138
733 62 1 2.602 13.008 0.000
734 62 1 2.602 13.008 1.103
735 62 1 2.602 13.008 2.207
736 62 1 2.602 13.008 3.310
737 62 1 2.602 13.008 4.414
738 62 1 2.602 13.008 5.517
739 62 1 2.602 13.008 6.621
740 62 1 2.602 13.008 7.724
741 62 1 2.602 13.008 8.828
742 62 1 2.602 13.008 9.931
743 62 1 2.602 13.008 11.034
744 62 1 2.602 13.008 12.138
745 63 1 5.203 13.008 0.000
746 63 1 5.203 13.008 1.103
747 63 1 5.203 13.008 2.207
748 63 1 5.203 13.008 3.310
749 63 1 5.203 13.008 4.414
750 63 1 5.203 13.008 5.517
751 63 1 5.203 13.008 6.621
752 63 1 5.203 13.008 7.724
753 63 1 5.203 13.008 8.828
754 63 1 5.203 13.008 9.931
755 63 1 5.203 13.008 11.034
756 63 1 5.203 13.008 12.138
757 64 1 7.805 13.008 0.000
758 64 1 7.805 13.008 1.103
759 64 1 7.805 13.008 2.207
760 64 1 7.805 13.008 3.310
761 64 1 7.805 13.008 4.414
762 64 1 7.805 13.008 5.517
763 64 1 7.805 13.008 6.621
764 64 1 7.805 13.008 7.724
765 64 1 7.805 13.008 8.828
766 64 1 7.805 13.008 9.931
767 64 1 7.805 13.008 11.034
768 64 1 7.805 13.008 12.138
769 65 1 10.407 13.008 0.000
770 65 1 10.407 13.008 1.103
771 65 1 10.407 13.008 2.207
772 65 1 10.407 13.008 3.310
773 65 1 10.407 13.008 4.414
774 65 1 10.407 13.008 5.517
775 65 1 10.407 13.008 6.621
776 65 1 10.407 13.008 7.724
777 65 1 10.407 13.008 8.828
778 65 1 10.407 13.008 9.931
779 65 1 10.407 13.008 11.034
780 65 1 10.407 13.008 12.138
781 66 1 13.008 13.008 0.000
782 66 1 13.008 13.008 1.103
783 66 1 13.008 13.008 2.207
784 66 1 13.008 13.008 3.310
785 66 1 13.008 13.008 4.414
786 66 1 13.008 13.008 5.517
787 66 1 13.008 13.008 6.621
788 66 1 13.008 13.008 7.724
789 66 1 13.008 13.008 8.828
790 66 1 13.008 13.008 9.931
791 66 1 13.008 13.008 11.034
792 66 1 13.008 13.008 12.138
793 67 1 15.610 13.008 0.000
794 67 1 15.610 13.008 1.103
795 67 1 15.610 13.008 2.207
796 67 1 15.610 13.008 3.310
797 67 1 15.610 13.008 4.414
798 67 1 15.610 13.008 5.517
799 67 1 15.610 13.008 6.621
800 67 1 15.610 13.008 7.724
801 67 1 15.610 13.008 8.828
802 67 1 15.610 13.008 9.931
803 67 1 15.610 13.008 11.034
804 67 1 15.610 13.008 12.138
805 68 1 18.211 13.008 0.000
806 68 1 18.211 13.008 1.103
807 68 1 18.211 13.008 2.207
808 68 1 18.211 13.008 3.310
809 68 1 18.211 13.008 4.414
810 68 1 18.211 13.008 5.517
811 68 1 18.211 13.008 6.621
812 68 1 18.211 13.008 7.724
813 68 1 18.211 13.008 8.828
814 68 1 18.211 13.008 9.931
815 68 1 18.211 13.008 11.034
816 68 1 18.211 13.008 12.138
817 69 1 20.813 13.008 0.000
818 69 1 20.813 13.008 1.103
819 69 1 20.813 13.008 2.207
820 69 1 20.813 13.008 3.310
821 69 1 20.813 13.008 4.414
822 69 1 20.813 13.008 5.517
823 69 1 20.813 13.008 6.621
824 69 1 20.813 13.008 7.724
825 69 1 20.813 13.008 8.828
826 69 1 20.813 13.008 9.931
827 69 1 20.813 13.008 11.034
828 69 1 20.813 13.008 12.138
829 70 1 23.415 13.008 0.000
830 70 1 23.415 13.008 1.103
831 70 1 23.415 13.008 2.207
832 70 1 23.415 13.008 3.310
833 70 1 23.415 13.008 4.414
834 70 1 23.415 13.008 5.517
835 70 1 23.415 13.008 6.621
836 70 1 23.415 13.008 7.724
837 70 1 23.415 13.008 8.828
838 70 1 23.415 13.008 9.931
839 70 1 23.415 13.008 11.034
840 70 1 23.415 13.008 12.138
841 71 1 26.016 13.008 0.000
842 71 1 26.016 13.008 1.103
843 71 1 26.016 13.008 2.207
844 71 1 26.016 13.008 3.310
845 71 1 26.016 13.008 4.414
846 71 1 26.016 13.008 5.517
847 71 1 26.016 13.008 6.621
848 71 1 26.016 13.008 7.724
849 71 1 26.016 13.008 8.828
850 71 1 26.016 13.008 9.931
851 71 1 26.016 13.008 11.034
852 71 1 26.016 13.008 12.138
853 72 1 28.618 13.008 0.000
854 72 1 28.618 13.008 1.103
855 72 1 28.618 13.008 2.207
856 72 1 28.618 13.008 3.310
857 72 1 28.618 13.008 4.414
858 72 1 28.618 13.008 5.517
859 72 1 28.618 13.008 6.621
860 72 1 28.618 13.008 7.724
861 72 1 28.618 13.008 8.828
862 72 1 28.618 13.008 9.931
863 72 1 28.618 13.008 11.034
864 72 1 28.618 13.008 12.138
865 73 1 0.000 15.610 0.000
866 73 1 0.000 15.610 1.103
867 73 1 0.000 15.610 2.207
868 73 1 0.000 15.610 3.310
869 73 1 0.000 15.610 4.414
870 73 1 0.000 15.610 5.517
871 73 1 0.000 15.610 6.621
872 73 1 0.000 15.610 7.724
873 73 1 0.000 15.610 8.828
874 73 1 0.000 15.610 9.931
875 73 1 0.000 15.610 11.034
876 73 1 0.000 15.610 12.138
877 74 1 2.602 15.610 0.000
878 74 1 2.602 15.610 1.103
879 74 1 2.602 15.610 2.207
880 74 1 2.602 15.610 3.310
881 74 1 2.602 15.610 4.414
882 74 1 2.602 15.610 5.517
883 74 1 2.602 15.610 6.621
884 74 1 2.602 15.610 7.724
885 74 1 2.602 15.610 8.828
886 74 1 2.602 15.610 9.931
887 74 1 2.602 15.610 11.034
888 74 1 2.602 15.610 12.138
889 75 1 5.203 15.610 0.000
890 75 1 5.203 15.610 1.103
891 75 1 5.203 15.610 2.207
892 75 1 5.203 15.610 3.310
893 75 1 5.203 15.610 4.414
894 75 1 5.203 15.610 5.517
895 75 1 5.203 15.610 6.621
896 75 1 5.203 15.610 7.724
897 75 1 5.203 15.610 8.828
898 75 1 5.203 15.610 9.931
899 75 1 5.203 15.610 11.034
900 75 1 5.203 15.610 12.138
901 76 1 7.805 15.610 0.000
902 76 1 7.805 15.610 1.103
903 76 1 7.805 15.610 2.207
904 76 1 7.805 15.610 3.310
905 76 1 7.805 15.610 4.414
906 76 1 7.805 15.610 5.517
907 76 1 7.805 15.610 6.621
908 76 1 7.805 15.610 7.724
909 76 1 7.805 15.610 8.828
910 76 1 7.805 15.610 9.931
911 76 1 7.805 15.610 11.034
912 76 1 7.805 15.610 12.138
913 77 1 10.407 15.610 0.000
914 77 1 10.407 15.610 1.103
915 77 1 10.407 15.610 2.207
916 77 1 10.407 15.610 3.310
917 77 1 10.407 15.610 4.414
918 77 1 10.407 15.610 5.517
919 77 1 10.407 15.610 6.621
920 77 1 10.407 15.610 7.724
921 77 1 10.407 15.610 8.828
922 77 1 10.407 15.610 9.931
923 77 1 10.407 15.610 11.034
924 77 1 10.407 15.610 12.138
925 78 1 13.008 15.610 0.000
926 78 1 13.008 15.610 1.103
927 78 1 13.008 15.610 2.207
928 78 1 13.008 15.610 3.310
929 78 1 13.008 15.610 4.414
930 78 1 13.008 15.610 5.517
931 78 1 13.008 15.610 6.621
932 78 1 13.008 15.610 7.724
933 78 1 13.008 15.610 8.828
934 78 1 13.008 15.610 9.931
935 78 1 13.008 15.610 11.034
936 78 1 13.008 15.610 12.138
937 79 1 15.610 15.610 0.000
938 79 1 15.610 15.610 1.103
939 79 1 15.610 15.610 2.207
940 79 1 15.610 15.610 3.310
941 79 1 15.610 15.610 4.414
942 79 1 15.610 15.610 5.517
943 79 1 15.610 15.610 6.621
944 79 1 15.610 15.610 7.724
945 79 1 15.610 15.610 8.828
946 79 1 15.610 15.610 9.931
947 79 1 15.610 15.610 11.034
948 79 1 15.610 15.610 12.138
949 80 1 18.211 15.610 0.000
950 80 1 18.211 15.610 1.103
951 80 1 18.211 15.610 2.207
952 80 1 18.211 15.610 3.310
953 80 1 18.211 15.610 4.414
954 80 1 18.211 15.610 5.517
955 80 1 18.211 15.610 6.621
956 80 1 18.211 15.610 7.724
957 80 1 18.211 15.610 8.828
958 80 1 18.211 15.610 9.931
959 80 1 18.211 15.610 11.034
960 80 1 18.211 15.610 12.138
961 81 1 20.813 15.610 0.000
962 81 1 20.813 15.610 1.103
963 81 1 20.813 15.610 2.207
964 81 1 20.813 15.610 3.310
965 81 1 20.813 15.610 4.414
966 81 1 20.813 15.610 5.517
967 81 1 20.813 15.610 6.621
968 81 1 20.813 15.610 7.724
969 81 1 20.813 15.610 8.828
970 81 1 20.813 15.610 9.931
971 81 1 20.813 15.610 11.034
972 81 1 20.813 15.610 12.138
973 82 1 23.415 15.610 0.000
974 82 1 23.415 15.610 1.103
975 82 1 23.415 15.610 2.207
976 82 1 23.415 15.610 3.310
977 82 1 23.415 15.610 4.414
978 82 1 23.415 15.610 5.517
979 82 1 23.415 15.610 6.621
980 82 1 23.415 15.610 7.724
981 82 1 23.415 15.610 8.828
982 82 1 23.415 15.610 9.931
983 82 1 23.415 15.610 11.034
984 82 1 23.415 15.610 12.138
985 83 1 26.016 15.610 0.000
986 83 1 26.016 15.610 1.103
987 83 1 26.016 15.610 2.207
988 83 1 26.016 15.610 3.310
989 83 1 26.016 15.610 4.414
990 83 1 26.016 15.610 5.517
991 83 1 26.016 15.610 6.621
992 83 1 26.016 15.610 7.724
993 83 1 26.016 15.610 8.828
994 83 1 26.016 15.610 9.931
995 83 1 26.016 15.610 11.034
996 83 1 26.016 15.610 12.138
997 84 1 28.618 15.610 0.000
998 84 1 28.618 15.610 1.103
999 84 1 28.618 15.610 2.207
1000 84 1 28.618 15.610 3.310
1001 84 1 28.618 15.610 4.414
1002 84 1 28.618 15.610 5.517
1003 84 1 28.618 15.610 6.621
1004 84 1 28.618 15.610 7.724
1005 84 1 28.618 15.610 8.828
1006 84 1 28.618 15.610 9.931
1007 84 1 28.618 15.610 11.034
1008 84 1 28.618 15.610 12.138
1009 85 1 0.000 18.211 0.000
1010 85 1 0.000 18.211 1.103
1011 85 1 0.000 18.211 2.207
1012 85 1 0.000 18.211 3.310
1013 85 1 0.000 18.211 4.414
1014 85 1 0.000 18.211 5.517
1015 85 1 0.000 18.211 6.621
1016 85 1 0.000 18.211 7.724
1017 85 1 0.000 18.211 8.828
1018 85 1 0.000 18.211 9.931
1019 85 1 0.000 18.211 11.034
1020 85 1 0.000 18.211 12.138
1021 86 1 2.602 18.211 0.000
1022 86 1 2.602 18.211 1.103
1023 86 1 2.602 18.211 2.207
1024 86 1 2.602 18.211 3.310
1025 86 1 2.602 18.211 4.414
1026 86 1 2.602 18.211 5.517
1027 86 1 2.602 18.211 6.621
1028 86 1 2.602 18.211 7.724
1029 86 1 2.602 18.211 8.828
1030 86 1 2.602 18.211 9.931
1031 86 1 2.602 18.211 11.034
1032 86 1 2.602 18.211 12.138
1033 87 1 5.203 18.211 0.000
1034 87 1 5.203 18.211 1.103
1035 87 1 5.203 18.211 2.207
1036 87 1 5.203 18.211 3.310
1037 87 1 5.203 18.211 4.414
1038 87 1 5.203 18.211 5.517
1039 87 1 5.203 18.211 6.621
1040 87 1 5.203 18.211 7.724
1041 87 1 5.203 18.211 8.828
1042 87 1 5.203 18.211 9.931
1043 87 1 5.203 18.211 11.034
1044 87 1 5.203 18.211 12.138
1045 88 1 7.805 18.211 0.000
1046 88 1 7.805 18.211 1.103
1047 88 1 7.805 18.211 2.207
1048 88 1 7.805 18.211 3.310
1049 88 1 7.805 18.211 4.414
1050 88 1 7.805 18.211 5.517
1051 88 1 7.805 18.211 6.621
1052 88 1 7.805 18.211 7.724
1053 88 1 7.805 18.211 8.828
1054 88 1 7.805 18.211 9.931
1055 88 1 7.805 18.211 11.034
1056 88 1 7.805 18.211 12.138
1057 89 1 10.407 18.211 0.000
1058 89 1 10.407 18.211 1.103
1059 89 1 10.407 18.211 2.207
1060 89 1 10.407 18.211 3.310